<?xml version="1.0"?>
<VTKFile type="UnstructuredGrid" version="0.1" byte_order="LittleEndian">
    <UnstructuredGrid>
        <Piece NumberOfPoints="6405" NumberOfCells="4800">
            <Points>
                <DataArray type="Float32" NumberOfComponents="3" format="ascii">
                    0.000000    0.000000    0.000000  100.000000    0.000000    0.000000  200.000000    0.000000    0.000000  300.000000    0.000000    0.000000  400.000000    0.000000    0.000000  500.000000    0.000000    0.000000  600.000000    0.000000    0.000000  700.000000    0.000000    0.000000  800.000000    0.000000    0.000000  900.000000    0.000000    0.000000 1000.000000    0.000000    0.000000 1100.000000    0.000000    0.000000 1200.000000    0.000000    0.000000 1300.000000    0.000000    0.000000 1400.000000    0.000000    0.000000 1500.000000    0.000000    0.000000 1600.000000    0.000000    0.000000 1700.000000    0.000000    0.000000 1800.000000    0.000000    0.000000 1900.000000    0.000000    0.000000 2000.000000    0.000000    0.000000 2100.000000    0.000000    0.000000 2200.000000    0.000000    0.000000 2300.000000    0.000000    0.000000 2400.000000    0.000000    0.000000 2500.000000    0.000000    0.000000 2600.000000    0.000000    0.000000 2700.000000    0.000000    0.000000 2800.000000    0.000000    0.000000 2900.000000    0.000000    0.000000 3000.000000    0.000000    0.000000 3100.000000    0.000000    0.000000 3200.000000    0.000000    0.000000 3300.000000    0.000000    0.000000 3400.000000    0.000000    0.000000 3500.000000    0.000000    0.000000 3600.000000    0.000000    0.000000 3700.000000    0.000000    0.000000 3800.000000    0.000000    0.000000 3900.000000    0.000000    0.000000 4000.000000    0.000000    0.000000 4100.000000    0.000000    0.000000 4200.000000    0.000000    0.000000 4300.000000    0.000000    0.000000 4400.000000    0.000000    0.000000 4500.000000    0.000000    0.000000 4600.000000    0.000000    0.000000 4700.000000    0.000000    0.000000 4800.000000    0.000000    0.000000 4900.000000    0.000000    0.000000 5000.000000    0.000000    0.000000 5100.000000    0.000000    0.000000 5200.000000    0.000000    0.000000 5300.000000    0.000000    0.000000 5400.000000    0.000000    0.000000 5500.000000    0.000000    0.000000 5600.000000    0.000000    0.000000 5700.000000    0.000000    0.000000 5800.000000    0.000000    0.000000 5900.000000    0.000000    0.000000 6000.000000    0.000000    0.000000    0.000000  100.000000    0.000000  100.000000  100.000000    0.000000  200.000000  100.000000    0.000000  300.000000  100.000000    0.000000  400.000000  100.000000    0.000000  500.000000  100.000000    0.000000  600.000000  100.000000    0.000000  700.000000  100.000000    0.000000  800.000000  100.000000    0.000000  900.000000  100.000000    0.000000 1000.000000  100.000000    0.000000 1100.000000  100.000000    0.000000 1200.000000  100.000000    0.000000 1300.000000  100.000000    0.000000 1400.000000  100.000000    0.000000 1500.000000  100.000000    0.000000 1600.000000  100.000000    0.000000 1700.000000  100.000000    0.000000 1800.000000  100.000000    0.000000 1900.000000  100.000000    0.000000 2000.000000  100.000000    0.000000 2100.000000  100.000000    0.000000 2200.000000  100.000000    0.000000 2300.000000  100.000000    0.000000 2400.000000  100.000000    0.000000 2500.000000  100.000000    0.000000 2600.000000  100.000000    0.000000 2700.000000  100.000000    0.000000 2800.000000  100.000000    0.000000 2900.000000  100.000000    0.000000 3000.000000  100.000000    0.000000 3100.000000  100.000000    0.000000 3200.000000  100.000000    0.000000 3300.000000  100.000000    0.000000 3400.000000  100.000000    0.000000 3500.000000  100.000000    0.000000 3600.000000  100.000000    0.000000 3700.000000  100.000000    0.000000 3800.000000  100.000000    0.000000 3900.000000  100.000000    0.000000 4000.000000  100.000000    0.000000 4100.000000  100.000000    0.000000 4200.000000  100.000000    0.000000 4300.000000  100.000000    0.000000 4400.000000  100.000000    0.000000 4500.000000  100.000000    0.000000 4600.000000  100.000000    0.000000 4700.000000  100.000000    0.000000 4800.000000  100.000000    0.000000 4900.000000  100.000000    0.000000 5000.000000  100.000000    0.000000 5100.000000  100.000000    0.000000 5200.000000  100.000000    0.000000 5300.000000  100.000000    0.000000 5400.000000  100.000000    0.000000 5500.000000  100.000000    0.000000 5600.000000  100.000000    0.000000 5700.000000  100.000000    0.000000 5800.000000  100.000000    0.000000 5900.000000  100.000000    0.000000 6000.000000  100.000000    0.000000    0.000000  200.000000    0.000000  100.000000  200.000000    0.000000  200.000000  200.000000    0.000000  300.000000  200.000000    0.000000  400.000000  200.000000    0.000000  500.000000  200.000000    0.000000  600.000000  200.000000    0.000000  700.000000  200.000000    0.000000  800.000000  200.000000    0.000000  900.000000  200.000000    0.000000 1000.000000  200.000000    0.000000 1100.000000  200.000000    0.000000 1200.000000  200.000000    0.000000 1300.000000  200.000000    0.000000 1400.000000  200.000000    0.000000 1500.000000  200.000000    0.000000 1600.000000  200.000000    0.000000 1700.000000  200.000000    0.000000 1800.000000  200.000000    0.000000 1900.000000  200.000000    0.000000 2000.000000  200.000000    0.000000 2100.000000  200.000000    0.000000 2200.000000  200.000000    0.000000 2300.000000  200.000000    0.000000 2400.000000  200.000000    0.000000 2500.000000  200.000000    0.000000 2600.000000  200.000000    0.000000 2700.000000  200.000000    0.000000 2800.000000  200.000000    0.000000 2900.000000  200.000000    0.000000 3000.000000  200.000000    0.000000 3100.000000  200.000000    0.000000 3200.000000  200.000000    0.000000 3300.000000  200.000000    0.000000 3400.000000  200.000000    0.000000 3500.000000  200.000000    0.000000 3600.000000  200.000000    0.000000 3700.000000  200.000000    0.000000 3800.000000  200.000000    0.000000 3900.000000  200.000000    0.000000 4000.000000  200.000000    0.000000 4100.000000  200.000000    0.000000 4200.000000  200.000000    0.000000 4300.000000  200.000000    0.000000 4400.000000  200.000000    0.000000 4500.000000  200.000000    0.000000 4600.000000  200.000000    0.000000 4700.000000  200.000000    0.000000 4800.000000  200.000000    0.000000 4900.000000  200.000000    0.000000 5000.000000  200.000000    0.000000 5100.000000  200.000000    0.000000 5200.000000  200.000000    0.000000 5300.000000  200.000000    0.000000 5400.000000  200.000000    0.000000 5500.000000  200.000000    0.000000 5600.000000  200.000000    0.000000 5700.000000  200.000000    0.000000 5800.000000  200.000000    0.000000 5900.000000  200.000000    0.000000 6000.000000  200.000000    0.000000    0.000000  300.000000    0.000000  100.000000  300.000000    0.000000  200.000000  300.000000    0.000000  300.000000  300.000000    0.000000  400.000000  300.000000    0.000000  500.000000  300.000000    0.000000  600.000000  300.000000    0.000000  700.000000  300.000000    0.000000  800.000000  300.000000    0.000000  900.000000  300.000000    0.000000 1000.000000  300.000000    0.000000 1100.000000  300.000000    0.000000 1200.000000  300.000000    0.000000 1300.000000  300.000000    0.000000 1400.000000  300.000000    0.000000 1500.000000  300.000000    0.000000 1600.000000  300.000000    0.000000 1700.000000  300.000000    0.000000 1800.000000  300.000000    0.000000 1900.000000  300.000000    0.000000 2000.000000  300.000000    0.000000 2100.000000  300.000000    0.000000 2200.000000  300.000000    0.000000 2300.000000  300.000000    0.000000 2400.000000  300.000000    0.000000 2500.000000  300.000000    0.000000 2600.000000  300.000000    0.000000 2700.000000  300.000000    0.000000 2800.000000  300.000000    0.000000 2900.000000  300.000000    0.000000 3000.000000  300.000000    0.000000 3100.000000  300.000000    0.000000 3200.000000  300.000000    0.000000 3300.000000  300.000000    0.000000 3400.000000  300.000000    0.000000 3500.000000  300.000000    0.000000 3600.000000  300.000000    0.000000 3700.000000  300.000000    0.000000 3800.000000  300.000000    0.000000 3900.000000  300.000000    0.000000 4000.000000  300.000000    0.000000 4100.000000  300.000000    0.000000 4200.000000  300.000000    0.000000 4300.000000  300.000000    0.000000 4400.000000  300.000000    0.000000 4500.000000  300.000000    0.000000 4600.000000  300.000000    0.000000 4700.000000  300.000000    0.000000 4800.000000  300.000000    0.000000 4900.000000  300.000000    0.000000 5000.000000  300.000000    0.000000 5100.000000  300.000000    0.000000 5200.000000  300.000000    0.000000 5300.000000  300.000000    0.000000 5400.000000  300.000000    0.000000 5500.000000  300.000000    0.000000 5600.000000  300.000000    0.000000 5700.000000  300.000000    0.000000 5800.000000  300.000000    0.000000 5900.000000  300.000000    0.000000 6000.000000  300.000000    0.000000    0.000000  400.000000    0.000000  100.000000  400.000000    0.000000  200.000000  400.000000    0.000000  300.000000  400.000000    0.000000  400.000000  400.000000    0.000000  500.000000  400.000000    0.000000  600.000000  400.000000    0.000000  700.000000  400.000000    0.000000  800.000000  400.000000    0.000000  900.000000  400.000000    0.000000 1000.000000  400.000000    0.000000 1100.000000  400.000000    0.000000 1200.000000  400.000000    0.000000 1300.000000  400.000000    0.000000 1400.000000  400.000000    0.000000 1500.000000  400.000000    0.000000 1600.000000  400.000000    0.000000 1700.000000  400.000000    0.000000 1800.000000  400.000000    0.000000 1900.000000  400.000000    0.000000 2000.000000  400.000000    0.000000 2100.000000  400.000000    0.000000 2200.000000  400.000000    0.000000 2300.000000  400.000000    0.000000 2400.000000  400.000000    0.000000 2500.000000  400.00
[...]
            <PointData>
                <DataArray type="Float32" Name="U0" NumberOfComponents="3" format="ascii">
                    0.000000    0.000000    0.000000   -1.141417   -0.605513   -0.217639   -2.062926   -1.038994   -0.112415   -2.924206   -1.512028    0.036829   -3.772765   -2.025491    0.185997   -4.603900   -2.597858    0.318660   -5.416369   -3.235941    0.438576   -6.211014   -3.944153    0.550031   -6.988924   -4.724574    0.655532   -7.750774   -5.577942    0.756334   -8.496890   -6.504147    0.853111   -9.227413   -7.502570    0.946309   -9.942416   -8.572275    1.036284  -10.641955   -9.712132    1.123337  -11.326086  -10.920891    1.207725  -11.994872  -12.197225    1.289670  -12.648374  -13.539764    1.369360  -13.286653  -14.947108    1.446957  -13.909765  -16.417839    1.522595  -14.517758  -17.950526    1.596388  -15.110674  -19.543732    1.668430  -15.688548  -21.196008    1.738801  -16.251406  -22.905902    1.807564  -16.799269  -24.671954    1.874771  -17.332152  -26.492694    1.940465  -17.850068  -28.366648    2.004678  -18.353025  -30.292334    2.067436  -18.841033  -32.268260    2.128755  -19.314100  -34.292929    2.188649  -19.772239  -36.364835    2.247124  -20.215468  -38.482463    2.304181  -20.643810  -40.644292    2.359819  -21.057300  -42.848793    2.414028  -21.455987  -45.094431    2.466798  -21.839935  -47.379665    2.518112  -22.209234  -49.702952    2.567949  -22.563997  -52.062746    2.616284  -22.904375  -54.457507    2.663086  -23.230562  -56.885698    2.708320  -23.542801  -59.345800    2.751943  -23.841401  -61.836317    2.793909  -24.126750  -64.355789    2.834161  -24.399327  -66.902807    2.872637  -24.659730  -69.476037    2.909262  -24.908695  -72.074247    2.943951  -25.147132  -74.696342    2.976601  -25.376164  -77.341420    3.007090  -25.597184  -80.008836    3.035264  -25.811925  -82.698298    3.060930  -26.022569  -85.409997    3.083827  -26.231890  -88.144791    3.103589  -26.443481  -90.904468    3.119660  -26.662073  -93.692124    3.131115  -26.893953  -96.512753    3.136349  -27.147450  -99.374372    3.132619  -27.433243 -102.290398    3.116066  -27.764935 -105.287520    3.083635  -28.160101 -108.420886    3.046889  -28.653268 -111.864232    3.050316  -29.274183 -115.927746    3.355743  -29.992910 -123.161467    4.433139    0.000000    0.000000    0.000000   -0.786263   -0.320464   -0.220562   -1.611042   -0.792172   -0.123217   -2.411763   -1.263521    0.011028   -3.195263   -1.782025    0.146589   -3.958268   -2.359432    0.268684   -4.700446   -3.002984    0.379272   -5.423459   -3.716406    0.481776   -6.129140   -4.501777    0.578478   -6.818802   -5.359903    0.670647   -7.493246   -6.290753    0.759015   -8.152948   -7.293750    0.844069   -8.798201   -8.367984    0.926180   -9.429204   -9.512333    1.005652  -10.046108  -10.725552    1.082737  -10.649034  -12.006320    1.157649  -11.238079  -13.353268    1.230563  -11.813329  -14.765000    1.301629  -12.374855  -16.240099    1.370970  -12.922715  -17.777140    1.438687  -13.456958  -19.374686    1.504864  -13.977625  -21.031294    1.569571  -14.484747  -22.745511    1.632862  -14.978350  -24.515879    1.694783  -15.458455  -26.340932    1.755369  -15.925079  -28.219196    1.814648  -16.378235  -30.149187    1.872639  -16.817938  -32.129417    1.929358  -17.244203  -34.158386    1.984814  -17.657045  -36.234587    2.039010  -18.056486  -38.356505    2.091948  -18.442554  -40.522615    2.143622  -18.815284  -42.731387    2.194024  -19.174725  -44.981280    2.243142  -19.520940  -47.270749    2.290959  -19.854008  -49.598244    2.337455  -20.174036  -51.962212    2.382604  -20.481154  -54.361101    2.426376  -20.775530  -56.793364    2.468737  -21.057371  -59.257467    2.509648  -21.326934  -61.751896    2.549061  -21.584534  -64.275168    2.586927  -21.830558  -66.825852    2.623186  -22.065473  -69.402581    2.657772  -22.289845  -72.004087    2.690612  -22.504354  -74.629233    2.721620  -22.709816  -77.277064    2.750700  -22.907206  -79.946870    2.777738  -23.097688  -82.638284    2.802603  -23.282648  -85.351403    2.825137  -23.463733  -88.086970    2.845141  -23.642893  -90.846642    2.862353  -23.822369  -93.633391    2.876401  -24.004510  -96.452193    2.886745  -24.190988  -99.311325    2.892786  -24.380444 -102.225491    2.894674  -24.562688 -105.222636    2.897748  -24.705787 -108.367810    2.921550  -24.743052 -111.791734    3.046606  -24.544083 -115.956326    3.361842  -24.636592 -120.741520    4.125117    0.000000    0.000000    0.000000   -0.647494   -0.194945   -0.218243   -1.301804   -0.587006   -0.137091   -1.993300   -1.048471   -0.015144   -2.687896   -1.565583    0.108890   -3.369872   -2.145940    0.220771   -4.034559   -2.793613    0.321907   -4.681887   -3.511527    0.415286   -5.312993   -4.301384    0.503052   -5.929018   -5.163901    0.586481   -6.530809   -6.099038    0.666343   -7.118953   -7.106237    0.743158   -7.693855   -8.184602    0.817313   -8.255803   -9.333025    0.889115   -8.805015  -10.550271    0.958812   -9.341658  -11.835026    1.026607   -9.865861  -13.185930    1.092666  -10.377729  -14.601591    1.157124  -10.877345  -16.080600    1.220092  -11.364777  -17.621534    1.281658  -11.840077  -19.222960    1.341896  -12.303289  -20.883439    1.400865  -12.754446  -22.601521    1.458611  -13.193576  -24.375749    1.515173  -13.620701  -26.204658    1.570578  -14.035838  -28.086776    1.624849  -14.439004  -30.020620    1.678003  -14.830213  -32.004700    1.730049  -15.209481  -34.037519    1.780996  -15.576823  -36.117567    1.830845  -15.932260  -38.243329    1.879595  -16.275817  -40.413278    1.927241  -16.607525  -42.625883    1.973774  -16.927424  -44.879600    2.019182  -17.235564  -47.172880    2.063450  -17.532011  -49.504170    2.106557  -17.816843  -51.871912    2.148481  -18.090164  -54.274546    2.189194  -18.352095  -56.710521    2.228665  -18.602788  -59.178291    2.266858  -18.842426  -61.676333    2.303732  -19.071228  -64.203155    2.339244  -19.289453  -66.757310    2.373345  -19.497405  -69.337417    2.405982  -19.695436  -71.942194    2.437100  -19.883947  -74.570487    2.466638  -20.063385  -77.221328    2.494538  -20.234234  -79.893997    2.520739  -20.396998  -82.588124    2.545191  -20.552162  -85.303821    2.567857  -20.700111  -88.041882    2.588734  -20.840996  -90.804085    2.607888  -20.974430  -93.593680    2.625507  -21.098877  -96.416231    2.642063  -21.210324  -99.281273    2.658717  -21.299696 -102.205601    2.678700  -21.348499 -105.221323    2.710391  -21.327810 -108.387771    2.777452  -21.208603 -111.830140    2.913763  -21.110700 -115.620648    3.188251  -21.242279 -119.299468    3.574907    0.000000    0.000000    0.000000   -0.540812   -0.127289   -0.199927   -1.077686   -0.452585   -0.140673   -1.650317   -0.879329   -0.035124   -2.243326   -1.385138    0.075397   -2.834777   -1.962538    0.176005   -3.415568   -2.611121    0.267043   -3.982992   -3.331617    0.350913   -4.536781   -4.124788    0.429507   -5.077370   -4.990903    0.504036   -5.605293   -5.929723    0.575271   -6.121020   -6.940601    0.643743   -6.624929   -8.022607    0.709849   -7.117318   -9.174625    0.773892   -7.598422  -10.395420    0.836117   -8.068427  -11.683683    0.896714   -8.527477  -13.038061    0.955837   -8.975687  -14.457170    1.013608   -9.413145  -15.939606    1.070123   -9.839920  -17.483952    1.125460  -10.256068  -19.088783    1.179680  -10.661629  -20.752658    1.232831  -11.056638  -22.474134    1.284953  -11.441120  -24.251754    1.336073  -11.815096  -26.084056    1.386216  -12.178582  -27.969567    1.435397  -12.531592  -29.906808    1.483630  -12.874141  -31.894287    1.530923  -13.206240  -33.930506    1.577279  -13.527903  -36.013959    1.622699  -13.839144  -38.143128    1.667182  -14.139981  -40.316489    1.710722  -14.430437  -42.532506    1.753312  -14.710537  -44.789638    1.794939  -14.980315  -47.086336    1.835590  -15.239812  -49.421044    1.875247  -15.489076  -51.792203    1.913891  -15.728169  -54.198255    1.951498  -15.957162  -56.637643    1.988042  -16.176141  -59.108824    2.023492  -16.385204  -61.610272    2.057816  -16.584462  -64.140494    2.090981  -16.774041  -66.698045    2.122949  -16.954072  -69.281548    2.153684  -17.124690  -71.889726    2.183152  -17.286020  -74.521439    2.211323  -17.438157  -77.175741    2.238177  -17.581136  -79.851949    2.263708  -17.714880  -82.549751    2.287943  -17.839121  -85.269357    2.310957  -17.953275  -88.011713    2.332912  -18.056234  -90.778842    2.354123  -18.146043  -93.574376    2.375169  -18.219375  -96.404449    2.397118  -18.270780  -99.279215    2.422002  -18.291914 -102.215597    2.453749  -18.272680 -105.240872    2.500425  -18.208033 -108.397706    2.574387  -18.130561 -111.718980    2.697207  -18.126561 -115.141375    2.879121  -18.259640 -118.357143    3.091131    0.000000    0.000000    0.000000   -0.450266   -0.087407   -0.175686   -0.888860   -0.364404   -0.132634   -1.357524   -0.756689   -0.046459   -1.848794   -1.243354    0.047970   -2.345990   -1.812196    0.135544   -2.838933   -2.457831    0.215395   -3.323214   -3.178406    0.289089   -3.797242   -3.973232    0.358106   -4.260614   -4.841800    0.423481   -4.713379   -5.783452    0.485918   -5.155743   -6.797323    0.545925   -5.587951   -7.882373    0.603883   -6.010233   -9.037432    0.660087   -6.422794  -10.261244    0.714765   -6.825803  -11.552497    0.768096   -7.219397  -12.909838    0.820216   -7.603685  -14.331889    0.871232   -7.978751  -15.817253    0.921227   -8.344659  -17.364518    0.970265   -8.701459  -18.972263    1.018395   -9.049189  -20.639052    1.065656   -9.387878  -22.363443    1.112076   -9.717547  -24.143983    1.157679  -10.038214  -25.979210    1.202480  -10.349892  -27.867653    1.246492  -10.652591  -29.807832    1.289724  -10.946320  -31.798258    1.332180  -11.231088  -33.837435    1.373863  -11.506901  -35.923855    1.414773  -11.773769  -38.056003    1.454906  -12.031698  -40.232355    1.494259  -12.280698  -42.451379    1.532824  -12.520780  -44.711534    1.570592  -12.751954  -47.011275    1.607550  -12.974236  -49.349048    1.643685  -13.187640  -51.723298    1.678981  -13.392184  -54.132470    1.713418  -13.587884  -56.575013    1.746975  -13.774758  -59.049389    1.779631  -13.952821  -61.554081    1.811361  -14.122081  -64.087604    1.842141  -14.282533  -66.648525    1.871948  -14.434155  -69.235485    1.900762  -14.576889  -71.847227    1.928567  -14.710627  -74.482643    1.955360  -14.835182  -77.140825    1.981154  -14.950249  -79.821147    2.005988  -15.055348  -82.523370    2.029944  -15.149748  -85.247795    2.053172  -15.232354  -87.995479    2.075932  -15.301571  -90.768558    2.098663  -15.355133  -93.570706    2.122098  -15.389989  -96.407808    2.147459  -15.402430  -99.288883    2.176780  -15.389156 -102.226931    2.213464  -15.350533 -105.238826    2.262580  -15.299413 -108.337840    2.331663  -15.269351 -111.510705    2.427806  -15.306464 -114.680972    2.547895  -15.426005 -117.668749    2.677846    0.000000    0.000000    0.000000   -0.366985   -0.063687   -0.148571   -0.719371   -0.306776   -0.117833   -1.094560   -0.670543   -0.050025   -1.490128   -1.137475    0.026927   -1.894116   -1.694643    0.099995   -2.298170   -2.334411    0.167518   -2.697652   -3.052758    0.230249   -3.090282   -3.847525    0.289168   -3.475034   -4.717268    0.345048   -3.851510   -5.660765    0.398464   -4.219622   -6.676826    0.449855   -4.579433   -7.764226    0.499561   -4.931062   -8.921702    0.547845   -5.274641  -10.147949    0.594912   -5.610298  -11.441634    0.640918   -5.938138  -12.801399    0.685979   -6.258248  -14.225866    0.730186   -6.570696  -15.713642    0.773604   -6.875535  -17.263320    0.816283   -7.172802  -18.873480    0.858261   -7.462527  -20.542693    0.899565   -7.744731  -22.269517    0.940215   -8.019429  -24.052500    0.980228   -8.286632  -25.890183    1.019613   -8.546348  -27.781094    1.058378   -8.798583  -29.723756    1.096529   -9.043340  -31.716681    1.134068   -9.280622  -33.758372    1.170995   -9.510428  -35.847325    1.207310   -9.732759  -37.982027    1.243010   -9.947611  -40.160958    1.278090  -10.154980  -42.382589    1.312545  -10.354858  -44.645385    1.346367  -10.547237  -46.947804    1.379548  -10.732102  -49.288300    1.412075  -10.909435  -51.665326    1.443938  -11.079211  -54.077334    1.475122  -11.241395  -56.522784    1.505613  -11.395942  -59.000150    1.535394  -11.542791  -61.507928    1.564449  -11.681860  -64.044649    1.592764  -11.813036  -66.608898    1.620327  -11.936171  -69.199338    1.647130  -12.051059  -71.814739    1.673175  -12.157424  -74.454022    1.698476  -12.254892  -77.116315    1.723067  -12.342960  -79.801025    1.747015  -12.420950  -82.507943    1.770431  -12.487969  -85.237377    1.793497  -12.542855  -87.990332    1.816503  -12.584156  -90.768743    1.839907  -12.610178  -93.575764    1.864420  -12.619232  -96.416052    1.891149  -12.610340  -99.295856    1.921786  -12.584806 -102.222375    1.958760  -12.549284 -105.200753    2.005381  -12.519187 -108.226465    2.065156  -12.518367 -111.272449    2.139356  -12.568955 -114.277162    2.223622  -12.671785 -117.134528    2.311801    0.000000    0.000000    0.000000   -0.287964   -0.050353   -0.120016   -0.560979   -0.270085   -0.098924   -0.850312   -0.612249   -0.048032   -1.155946   -1.062055    0.011483   -1.469903   -1.607391    0.069289   -1.786066   -2.239972    0.123636   -2.100561   -2.954583    0.174694   -2.411095   -3.747917    0.222985   -2.716388   -4.617668    0.268998   -3.015767   -5.562028    0.313140   -3.308921   -6.579436    0.355745   -3.595742   -7.668446    0.397083   -3.876228   -8.827665    0.437367   -4.150426  -10.055722    0.476763   -4.418397  -11.351249    0.515394   -4.680203  -12.712872    0.553351   -4.935894  -14.139211    0.590702   -5.185513  -15.628870    0.627495   -5.429090  -17.180445    0.663764   -5.666647  -18.792518    0.699533   -5.898200  -20.463660    0.734820   -6.123759  -22.192431    0.769637   -6.343331  -23.977381    0.803991   -6.556919  -25.817049    0.837888   -6.764525  -27.709966    0.871332   -6.966148  -29.654655    0.904324   -7.161786  -31.649628    0.936864   -7.351434  -33.693393    0.968953   -7.535085  -35.784446    1.000587   -7.712730  -37.921280    1.031765   -7.884355  -40.102378    1.062483   -8.049943  -42.326218    1.092737   -8.209469  -44.591271    1.122520   -8.362905  -46.896003    1.151828   -8.510210  -49.238879    1.180651   -8.651335  -51.618361    1.208982   -8.786219  -54.032914    1.236812   -8.914782  -56.481013    1.264131   -9.036927  -58.961144    1.290929   -9.152529  -61.471821    1.317196   -9.261436  -64.011592    1.342927   -9.363456  -66.579063    1.368116   -9.458348  -69.172913    1.392766   -9.545813  -71.791932    1.416887   -9.625479  -74.435055    1.440505   -9.696880  -77.101413    1.463664   -9.759447  -79.790401    1.486440   -9.812486  -82.501757    1.508951   -9.855176  -85.235662    1.531378   -9.886592  -87.992854    1.554000   -9.905781  -90.774743    1.577231   -9.911965  -93.583479    1.601692   -9.904967  -96.421856    1.628301   -9.886002  -99.292817    1.658362   -9.858983 -102.198011    1.693615   -9.832037 -105.134709    1.736044   -9.818041 -108.090706    1.787042   -9.831958 -111.038497    1.846042   -9.884023 -113.932742    1.909517   -9.971105 -116.707165    1.974885    0.000000    0.000000    0.000000   -0.211579   -0.044291   -0.090675   -0.409468   -0.248596   -0.077449   -0.618013   -0.575503   -0.042119   -0.838356   -1.012034    0.000491   -1.065601   -1.547151    0.042906   -1.295751   -2.172724    0.083628   -1.526015   -2.883057    0.122513   -1.754523   -3.674141    0.159741   -1.980071   -4.543019    0.195551   -2.201925   -5.487389    0.230177   -2.419665   -6.505346    0.263829   -2.633070   -7.595223    0.296686   -2.842036   -8.755495    0.328893   -3.046526   -9.984715    0.360562   -3.246533  -11.281471    0.391774   -3.442061  -12.644371    0.422588   -3.633121  -14.072023    0.453043   -3.819717  -15.563027    0.483168   -4.001855  -17.115978    0.512980   -4.179537  -18.729455    0.542490   -4.352759  -20.402031    0.571703   -4.521521  -22.132264    0.600624   -4.685817  -23.918702    0.629255   -4.845644  -25.759886    0.657594   -5.000994  -27.654346    0.685642   -5.151862  -29.600605    0.713397   -5.298238  -31.597178    0.740858   -5.440111  -33.642574    0.768023   -5.577469  -35.735294    0.794889   -5.710292  -37.873834    0.821454   -5.838558  -40.056685    0.847716   -5.962238  -42.282330    0.873671   -6.081294  -44.549250    0.899316   -6.195678  -46.855922    0.924646   -6.305330  -49.200821    0.949658   -6.410175  -51.582424    0.974345   -6.510122  -53.999209    0.998703   -6.605057  -56.449666    1.022727   -6.694842  -58.932298    1.046411   -6.779308  -61.445635    1.069752   -6.858253  -63.988240    1.092748   -6.931433  -66.558731    1.115400   -6.998556  -69.155798    1.137716   -7.059278  -71.778230    1.159711   -7.113192  -74.424949    1.181414   -7.159826  -77.095048    1.202870   -7.198646  -79.787844    1.224154   -7.229065  -82.502928    1.245378   -7.250475  -85.240221    1.266707   -7.262326  -88.000013    1.288389   -7.264261  -90.782959    1.310785   -7.256372  -93.589964    1.334420   -7.239623  -96.421851    1.360040   -7.216473  -99.278604    1.388656   -7.191614 -102.157922    1.421490   -7.172426 -105.052931    1.459680   -7.168351 -107.949354    1.503633   -7.188379 -110.823280    1.552309   -7.236945 -113.641456    1.603039   -7.310171 -116.359517    1.654815    0.000000    0.000000    0.000000   -0.136875   -0.043724   -0.060832   -0.262293   -0.238851   -0.054265   -0.393387   -0.556084   -0.033409   -0.531795   -0.983472   -0.007052   -0.675120   -1.510892    0.020166   -0.821210   -2.130652    0.047148   -0.968391   -2.836998    0.073604   -1.115404   -3.625586    0.099491   -1.261345   -4.493065    0.124857   -1.405588   -5.436789    0.149779   -1.547720   -6.454594    0.174343   -1.687475   -7.544640    0.198626   -1.824686   -8.705288    0.222691   -1.959245   -9.935021    0.246585   -2.091082  -11.232390    0.270340   -2.220145  -12.595978    0.293974   -2.346398  -14.024379    0.317498   -2.469809  -15.516187    0.340915   -2.590353  -17.069990    0.364225   -2.708007  -18.684365    0.387425   -2.822753  -20.357878    0.410510   -2.934572  -22.089087    0.433475   -3.043450  -23.876538    0.456316   -3.149372  -25.718768    0.479027   -3.252326  -27.614309    0.501605   -3.352299  -29.561682    0.524045   -3.449276  -31.559404    0.546344   -3.543240  -33.605987    0.568499   -3.634173  -35.699936    0.590508   -3.722049  -37.839752    0.612367   -3.806838  -40.023932    0.634075   -3.888502  -42.250970    0.655630   -3.966992  -44.519355    0.677029   -4.042248  -46.827576    0.698271   -4.114193  -49.174122    0.719353   -4.182735  -51.557483    0.740273   -4.247761  -53.976153    0.761030   -4.309133  -56.428637    0.781621   -4.366687  -58.913453    0.802045   -4.420227  -61.429143    0.822303   -4.469524  -63.974281    0.842395   -4.514309  -66.547489    0.862328   -4.554273  -69.147449    0.882109   -4.589066  -71.772930    0.901757   -4.618297  -74.422805    0.921300   -4.641545  -77.096086    0.940781   -4.658375  -79.791950    0.960269   -4.668369  -82.509758    0.979863   -4.671186  -85.249072    0.999714   -4.666661  -88.009625    1.020039   -4.654959  -90.791229    1.041154   -4.636810  -93.593557    1.063509   -4.613837  -96.415717    1.087720   -4.588932  -99.255503    1.114567   -4.566555 -102.108270    1.144892   -4.552639 -104.965467    1.179319   -4.553718 -107.813235    1.217787   -4.575036 -110.631745    1.259196   -4.618151 -113.396061    1.301487   -4.679318 -116.074452    1.344374    0.000000    0.000000    0.000000   -0.063189   -0.047635   -0.030597   -0.117742   -0.238791   -0.029