<?xml version="1.0"?>
<VTKFile type="UnstructuredGrid" version="0.1" byte_order="LittleEndian">
    <UnstructuredGrid>
        <Piece NumberOfPoints="9261" NumberOfCells="8000">
            <Points>
                <DataArray type="Float32" NumberOfComponents="3" format="ascii">
                    0.000000    0.000000    0.000000  100.000000    0.000000    0.000000  200.000000    0.000000    0.000000  300.000000    0.000000    0.000000  400.000000    0.000000    0.000000  500.000000    0.000000    0.000000  600.000000    0.000000    0.000000  700.000000    0.000000    0.000000  800.000000    0.000000    0.000000  900.000000    0.000000    0.000000 1000.000000    0.000000    0.000000 1100.000000    0.000000    0.000000 1200.000000    0.000000    0.000000 1300.000000    0.000000    0.000000 1400.000000    0.000000    0.000000 1500.000000    0.000000    0.000000 1600.000000    0.000000    0.000000 1700.000000    0.000000    0.000000 1800.000000    0.000000    0.000000 1900.000000    0.000000    0.000000 2000.000000    0.000000    0.000000    0.000000  100.000000    0.000000  100.000000  100.000000    0.000000  200.000000  100.000000    0.000000  300.000000  100.000000    0.000000  400.000000  100.000000    0.000000  500.000000  100.000000    0.000000  600.000000  100.000000    0.000000  700.000000  100.000000    0.000000  800.000000  100.000000    0.000000  900.000000  100.000000    0.000000 1000.000000  100.000000    0.000000 1100.000000  100.000000    0.000000 1200.000000  100.000000    0.000000 1300.000000  100.000000    0.000000 1400.000000  100.000000    0.000000 1500.000000  100.000000    0.000000 1600.000000  100.000000    0.000000 1700.000000  100.000000    0.000000 1800.000000  100.000000    0.000000 1900.000000  100.000000    0.000000 2000.000000  100.000000    0.000000    0.000000  200.000000    0.000000  100.000000  200.000000    0.000000  200.000000  200.000000    0.000000  300.000000  200.000000    0.000000  400.000000  200.000000    0.000000  500.000000  200.000000    0.000000  600.000000  200.000000    0.000000  700.000000  200.000000    0.000000  800.000000  200.000000    0.000000  900.000000  200.000000    0.000000 1000.000000  200.000000    0.000000 1100.000000  200.000000    0.000000 1200.000000  200.000000    0.000000 1300.000000  200.000000    0.000000 1400.000000  200.000000    0.000000 1500.000000  200.000000    0.000000 1600.000000  200.000000    0.000000 1700.000000  200.000000    0.000000 1800.000000  200.000000    0.000000 1900.000000  200.000000    0.000000 2000.000000  200.000000    0.000000    0.000000  300.000000    0.000000  100.000000  300.000000    0.000000  200.000000  300.000000    0.000000  300.000000  300.000000    0.000000  400.000000  300.000000    0.000000  500.000000  300.000000    0.000000  600.000000  300.000000    0.000000  700.000000  300.000000    0.000000  800.000000  300.000000    0.000000  900.000000  300.000000    0.000000 1000.000000  300.000000    0.000000 1100.000000  300.000000    0.000000 1200.000000  300.000000    0.000000 1300.000000  300.000000    0.000000 1400.000000  300.000000    0.000000 1500.000000  300.000000    0.000000 1600.000000  300.000000    0.000000 1700.000000  300.000000    0.000000 1800.000000  300.000000    0.000000 1900.000000  300.000000    0.000000 2000.000000  300.000000    0.000000    0.000000  400.000000    0.000000  100.000000  400.000000    0.000000  200.000000  400.000000    0.000000  300.000000  400.000000    0.000000  400.000000  400.000000    0.000000  500.000000  400.000000    0.000000  600.000000  400.000000    0.000000  700.000000  400.000000    0.000000  800.000000  400.000000    0.000000  900.000000  400.000000    0.000000 1000.000000  400.000000    0.000000 1100.000000  400.000000    0.000000 1200.000000  400.000000    0.000000 1300.000000  400.000000    0.000000 1400.000000  400.000000    0.000000 1500.000000  400.000000    0.000000 1600.000000  400.000000    0.000000 1700.000000  400.000000    0.000000 1800.000000  400.000000    0.000000 1900.000000  400.000000    0.000000 2000.000000  400.000000    0.000000    0.000000  500.000000    0.000000  100.000000  500.000000    0.000000  200.000000  500.000000    0.000000  300.000000  500.000000    0.000000  400.000000  500.000000    0.000000  500.000000  500.000000    0.000000  600.000000  500.000000    0.000000  700.000000  500.000000    0.000000  800.000000  500.000000    0.000000  900.000000  500.000000    0.000000 1000.000000  500.000000    0.000000 1100.000000  500.000000    0.000000 1200.000000  500.000000    0.000000 1300.000000  500.000000    0.000000 1400.000000  500.000000    0.000000 1500.000000  500.000000    0.000000 1600.000000  500.000000    0.000000 1700.000000  500.000000    0.000000 1800.000000  500.000000    0.000000 1900.000000  500.000000    0.000000 2000.000000  500.000000    0.000000    0.000000  600.000000    0.000000  100.000000  600.000000    0.000000  200.000000  600.000000    0.000000  300.000000  600.000000    0.000000  400.000000  600.000000    0.000000  500.000000  600.000000    0.000000  600.000000  600.000000    0.000000  700.000000  600.000000    0.000000  800.000000  600.000000    0.000000  900.000000  600.000000    0.000000 1000.000000  600.000000    0.000000 1100.000000  600.000000    0.000000 1200.000000  600.000000    0.000000 1300.000000  600.000000    0.000000 1400.000000  600.000000    0.000000 1500.000000  600.000000    0.000000 1600.000000  600.000000    0.000000 1700.000000  600.000000    0.000000 1800.000000  600.000000    0.000000 1900.000000  600.000000    0.000000 2000.000000  600.000000    0.000000    0.000000  700.000000    0.000000  100.000000  700.000000    0.000000  200.000000  700.000000    0.000000  300.000000  700.000000    0.000000  400.000000  700.000000    0.000000  500.000000  700.000000    0.000000  600.000000  700.000000    0.000000  700.000000  700.000000    0.000000  800.000000  700.000000    0.000000  900.000000  700.000000    0.000000 1000.000000  700.000000    0.000000 1100.000000  700.000000    0.000000 1200.000000  700.000000    0.000000 1300.000000  700.000000    0.000000 1400.000000  700.000000    0.000000 1500.000000  700.000000    0.000000 1600.000000  700.000000    0.000000 1700.000000  700.000000    0.000000 1800.000000  700.000000    0.000000 1900.000000  700.000000    0.000000 2000.000000  700.000000    0.000000    0.000000  800.000000    0.000000  100.000000  800.000000    0.000000  200.000000  800.000000    0.000000  300.000000  800.000000    0.000000  400.000000  800.000000    0.000000  500.000000  800.000000    0.000000  600.000000  800.000000    0.000000  700.000000  800.000000    0.000000  800.000000  800.000000    0.000000  900.000000  800.000000    0.000000 1000.000000  800.000000    0.000000 1100.000000  800.000000    0.000000 1200.000000  800.000000    0.000000 1300.000000  800.000000    0.000000 1400.000000  800.000000    0.000000 1500.000000  800.000000    0.000000 1600.000000  800.000000    0.000000 1700.000000  800.000000    0.000000 1800.000000  800.000000    0.000000 1900.000000  800.000000    0.000000 2000.000000  800.000000    0.000000    0.000000  900.000000    0.000000  100.000000  900.000000    0.000000  200.000000  900.000000    0.000000  300.000000  900.000000    0.000000  400.000000  900.000000    0.000000  500.000000  900.000000    0.000000  600.000000  900.000000    0.000000  700.000000  900.000000    0.000000  800.000000  900.000000    0.000000  900.000000  900.000000    0.000000 1000.000000  900.000000    0.000000 1100.000000  900.000000    0.000000 1200.000000  900.000000    0.000000 1300.000000  900.000000    0.000000 1400.000000  900.000000    0.000000 1500.000000  900.000000    0.000000 1600.000000  900.000000    0.000000 1700.000000  900.000000    0.000000 1800.000000  900.000000    0.000000 1900.000000  900.000000    0.000000 2000.000000  900.000000    0.000000    0.000000 1000.000000    0.000000  100.000000 1000.000000    0.000000  200.000000 1000.000000    0.000000  300.000000 1000.000000    0.000000  400.000000 1000.000000    0.000000  500.000000 1000.000000    0.000000  600.000000 1000.000000    0.000000  700.000000 1000.000000    0.000000  800.000000 1000.000000    0.000000  900.000000 1000.000000    0.000000 1000.000000 1000.000000    0.000000 1100.000000 1000.000000    0.000000 1200.000000 1000.000000    0.000000 1300.000000 1000.000000    0.000000 1400.000000 1000.000000    0.000000 1500.000000 1000.000000    0.000000 1600.000000 1000.000000    0.000000 1700.000000 1000.000000    0.000000 1800.000000 1000.000000    0.000000 1900.000000 1000.000000    0.000000 2000.000000 1000.000000    0.000000    0.000000 1100.000000    0.000000  100.000000 1100.000000    0.000000  200.000000 1100.000000    0.000000  300.000000 1100.000000    0.000000  400.000000 1100.000000    0.000000  500.000000 1100.000000    0.000000  600.000000 1100.000000    0.000000  700.000000 1100.000000    0.000000  800.000000 1100.000000    0.000000  900.000000 1100.000000    0.000000 1000.000000 1100.000000    0.000000 1100.000000 1100.000000    0.000000 1200.000000 1100.000000    0.000000 1300.000000 1100.000000    0.000000 1400.000000 1100.000000    0.000000 1500.000000 1100.000000    0.000000 1600.000000 1100.000000    0.000000 1700.000000 1100.000000    0.000000 1800.000000 1100.000000    0.000000 1900.000000 1100.000000    0.000000 2000.000000 1100.000000    0.000000    0.000000 1200.000000    0.000000  100.000000 1200.000000    0.000000  200.000000 1200.000000    0.000000  300.000000 1200.000000    0.000000  400.000000 1200.000000    0.000000  500.000000 1200.000000    0.000000  600.000000 1200.000000    0.000000  700.000000 1200.000000    0.000000  800.000000 1200.000000    0.000000  900.000000 1200.000000    0.000000 1000.000000 1200.000000    0.000000 1100.000000 1200.000000    0.000000 1200.000000 1200.000000    0.000000 1300.000000 1200.000000    0.000000 1400.000000 1200.000000    0.000000 1500.000000 1200.000000    0.000000 1600.000000 1200.000000    0.000000 1700.000000 1200.00
[...]
            <PointData>
                <DataArray type="Float32" Name="U0" NumberOfComponents="3" format="ascii">
                    0.000000 -0.012178 -0.424228  0.002692 -0.012244 -0.423989  0.005389 -0.012473 -0.423240  0.008099 -0.012868 -0.421978  0.010832 -0.013438 -0.420192  0.013605 -0.014195 -0.417868  0.016441 -0.015157 -0.414980  0.019374 -0.016349 -0.411490  0.022454 -0.017806 -0.407337  0.025747 -0.019576 -0.402431  0.029350 -0.021727 -0.396634  0.033400 -0.024361 -0.389734  0.038095 -0.027629 -0.381398  0.043730 -0.031771 -0.371084  0.050765 -0.037187 -0.357873  0.059961 -0.044626 -0.340069  0.072637 -0.055559 -0.314275  0.091745 -0.073671 -0.272172  0.117573 -0.108100 -0.190190  0.138539 -0.157126  0.000000  0.149916 -0.151308  0.000000  0.000000 -0.013006 -0.426076  0.002821 -0.013073 -0.425843  0.005648 -0.013305 -0.425112  0.008490 -0.013705 -0.423879  0.011361 -0.014284 -0.422139  0.014280 -0.015056 -0.419878  0.017273 -0.016041 -0.417075  0.020379 -0.017270 -0.413698  0.023652 -0.018780 -0.409695  0.027170 -0.020628 -0.404987  0.031040 -0.022892 -0.399453  0.035418 -0.025687 -0.392908  0.040528 -0.029188 -0.385064  0.046716 -0.033671 -0.375456  0.054513 -0.039598 -0.363324  0.064831 -0.047793 -0.347217  0.079047 -0.059883 -0.324933  0.099844 -0.079044 -0.288202  0.125249 -0.109765 -0.241357  0.139442 -0.140668  0.000000  0.155763 -0.140330  0.000000  0.000000 -0.013866 -0.428078  0.002900 -0.013933 -0.427851  0.005805 -0.014165 -0.427138  0.008724 -0.014568 -0.425937  0.011669 -0.015153 -0.424245  0.014659 -0.015935 -0.422053  0.017720 -0.016938 -0.419344  0.020889 -0.018194 -0.416093  0.024218 -0.019748 -0.412258  0.027780 -0.021659 -0.407776  0.031675 -0.024013 -0.402549  0.036044 -0.026936 -0.396427  0.041083 -0.030612 -0.389181  0.047072 -0.035330 -0.380454  0.054409 -0.041555 -0.369670  0.063629 -0.050056 -0.355911  0.075359 -0.062145 -0.337362  0.089537 -0.079570 -0.312027  0.102683 -0.103099 -0.266802  0.109072 -0.125728 -0.241452  0.107002 -0.118673 -0.190321  0.000000 -0.014735 -0.430260  0.002941 -0.014800 -0.430039  0.005885 -0.015030 -0.429343  0.008838 -0.015429 -0.428174  0.011809 -0.016010 -0.426530  0.014814 -0.016791 -0.424406  0.017875 -0.017796 -0.421793  0.021025 -0.019060 -0.418672  0.024306 -0.020629 -0.415014  0.027779 -0.022565 -0.410771  0.031524 -0.024955 -0.405870  0.035646 -0.027920 -0.400201  0.040279 -0.031635 -0.393599  0.045588 -0.036358 -0.385814  0.051752 -0.042465 -0.376481  0.058890 -0.050499 -0.365039  0.066819 -0.061117 -0.350739  0.074399 -0.074703 -0.332189  0.079145 -0.089820 -0.312071  0.078544 -0.100231 -0.288281  0.073117 -0.092412 -0.272244  0.000000 -0.015583 -0.432650  0.002953 -0.015645 -0.432434  0.005904 -0.015867 -0.431753  0.008857 -0.016254 -0.430611  0.011815 -0.016819 -0.429010  0.014791 -0.017581 -0.426950  0.017799 -0.018567 -0.424426  0.020864 -0.019810 -0.421431  0.024018 -0.021358 -0.417947  0.027304 -0.023268 -0.413942  0.030774 -0.025621 -0.409368  0.034492 -0.028523 -0.404152  0.038523 -0.032117 -0.398187  0.042918 -0.036592 -0.391325  0.047677 -0.042187 -0.383361  0.052646 -0.049152 -0.374045  0.057345 -0.057597 -0.363115  0.060801 -0.067047 -0.350770  0.061772 -0.075592 -0.337423  0.059464 -0.079366 -0.325012  0.055111 -0.073123 -0.314324  0.000000 -0.016382 -0.435267  0.002943 -0.016439 -0.435054  0.005879 -0.016647 -0.434384  0.008805 -0.017010 -0.433263  0.011722 -0.017544 -0.431695  0.014633 -0.018268 -0.429687  0.017548 -0.019208 -0.427242  0.020481 -0.020399 -0.424360  0.023452 -0.021883 -0.421035  0.026485 -0.023713 -0.417253  0.029608 -0.025954 -0.412988  0.032845 -0.028690 -0.408198  0.036204 -0.032019 -0.402827  0.039661 -0.036053 -0.396800  0.043115 -0.040891 -0.390030  0.046332 -0.046558 -0.382446  0.048885 -0.052850 -0.374071  0.050188 -0.059080 -0.365091  0.049709 -0.063836 -0.355984  0.047425 -0.065109 -0.347295  0.044245 -0.060347 -0.340130  0.000000 -0.017111 -0.438129  0.002919 -0.017161 -0.437917  0.005825 -0.017346 -0.437251  0.008708 -0.017673 -0.436139  0.011563 -0.018158 -0.434590  0.014387 -0.018822 -0.432617  0.017180 -0.019690 -0.430231  0.019949 -0.020794 -0.427441  0.022703 -0.022173 -0.424253  0.025449 -0.023871 -0.420668  0.028196 -0.025936 -0.416677  0.030937 -0.028424 -0.412268  0.033650 -0.031391 -0.407418  0.036269 -0.034878 -0.402105  0.038671 -0.038884 -0.396312  0.040647 -0.043308 -0.390053  0.041910 -0.047851 -0.383408  0.042158 -0.051921 -0.376550  0.041226 -0.054600 -0.369754  0.039256 -0.054760 -0.363413  0.036836 -0.051084 -0.357951  0.000000 -0.017757 -0.441257  0.002890 -0.017797 -0.441043  0.005760 -0.017951 -0.440370  0.008592 -0.018228 -0.439251  0.011374 -0.018645 -0.437701  0.014096 -0.019224 -0.435738  0.016751 -0.019991 -0.433384  0.019339 -0.020977 -0.430657  0.021859 -0.022213 -0.427573  0.024309 -0.023735 -0.424147  0.026682 -0.025575 -0.420387  0.028958 -0.027764 -0.416299  0.031098 -0.030320 -0.411886  0.033030 -0.033237 -0.407156  0.034646 -0.036456 -0.402127  0.035794 -0.039829 -0.396844  0.036307 -0.043073 -0.391391  0.036052 -0.045743 -0.385899  0.035009 -0.047248 -0.380552  0.033341 -0.046935 -0.375559  0.031433 -0.043999 -0.371183  0.000000 -0.018320 -0.444683  0.002867 -0.018346 -0.444460  0.005704 -0.018458 -0.443766  0.008486 -0.018668 -0.442617  0.011192 -0.018994 -0.441036  0.013805 -0.019463 -0.439051  0.016316 -0.020101 -0.436691  0.018716 -0.020937 -0.433988  0.021000 -0.022000 -0.430968  0.023160 -0.023314 -0.427657  0.025183 -0.024899 -0.424075  0.027043 -0.026764 -0.420243  0.028701 -0.028904 -0.416179  0.030094 -0.031281 -0.411907  0.031142 -0.033814 -0.407461  0.031748 -0.036352 -0.402891  0.031825 -0.038662 -0.398271  0.031328 -0.040422 -0.393699  0.030293 -0.041245 -0.389293  0.028862 -0.040723 -0.385183  0.027296 -0.038325 -0.381517  0.000000 -0.018810 -0.448453  0.002859 -0.018817 -0.448215  0.005678 -0.018874 -0.447479  0.008419 -0.018995 -0.446268  0.011054 -0.019206 -0.444615  0.013561 -0.019536 -0.442560  0.015925 -0.020016 -0.440147  0.018138 -0.020675 -0.437418  0.020191 -0.021539 -0.434413  0.022076 -0.022624 -0.431165  0.023780 -0.023940 -0.427705  0.025280 -0.025481 -0.424062  0.026542 -0.027224 -0.420263  0.027520 -0.029120 -0.416340  0.028160 -0.031082 -0.412330  0.028407 -0.032977 -0.408280  0.028223 -0.034619 -0.404252  0.027608 -0.035777 -0.400318  0.026615 -0.036191 -0.396555  0.025360 -0.035589 -0.393044  0.024029 -0.033599 -0.389873  0.000000 -0.019253 -0.452644  0.002882 -0.019234 -0.452381  0.005708 -0.019217 -0.451572  0.008428 -0.019223 -0.450251  0.011004 -0.019285 -0.448468  0.013410 -0.019444 -0.446281  0.015629 -0.019735 -0.443750  0.017656 -0.020193 -0.440934  0.019485 -0.020838 -0.437883  0.021113 -0.021684 -0.434640  0.022530 -0.022729 -0.431243  0.023720 -0.023960 -0.427724  0.024658 -0.025343 -0.424115  0.025314 -0.026825 -0.420447  0.025657 -0.028323 -0.416757  0.025659 -0.029726 -0.413087  0.025313 -0.030888 -0.409485  0.024636 -0.031643 -0.406002  0.023687 -0.031807 -0.402693  0.022560 -0.031191 -0.399605  0.021392 -0.029522 -0.396792  0.000000 -0.019690 -0.457380  0.002953 -0.019637 -0.457074  0.005827 -0.019519 -0.456145  0.008556 -0.019372 -0.454643  0.011090 -0.019243 -0.452645  0.013400 -0.019189 -0.450236  0.015475 -0.019259 -0.447503  0.017314 -0.019490 -0.444521  0.018925 -0.019903 -0.441355  0.020309 -0.020507 -0.438054  0.021465 -0.021291 -0.434659  0.022385 -0.022235 -0.431203  0.023055 -0.023301 -0.427714  0.023458 -0.024434 -0.424225  0.023577 -0.025561 -0.420764  0.023405 -0.026589 -0.417369  0.022950 -0.027405 -0.414074  0.022238 -0.027885 -0.410919  0.021325 -0.027896 -0.407936  0.020290 -0.027302 -0.405156  0.019234 -0.025895 -0.402606  0.000000 -0.020192 -0.462858  0.003098 -0.020088 -0.462483  0.006083 -0.019829 -0.461356  0.008861 -0.019470 -0.459562  0.011372 -0.019089 -0.457219  0.013587 -0.018770 -0.454460  0.015507 -0.018579 -0.451408  0.017151 -0.018561 -0.448162  0.018538 -0.018735 -0.444800  0.019685 -0.019101 -0.441373  0.020599 -0.019642 -0.437920  0.021281 -0.020330 -0.434468  0.021723 -0.021122 -0.431043  0.021920 -0.021967 -0.427667  0.021866 -0.022800 -0.424366  0.021564 -0.023542 -0.421166  0.021029 -0.024106 -0.418094  0.020293 -0.024398 -0.415176  0.019406 -0.024319 -0.412433  0.018434 -0.023766 -0.409880  0.017457 -0.022580 -0.407529  0.000000 -0.020865 -0.469410  0.003359 -0.020685 -0.468919  0.006546 -0.020214 -0.467461  0.009429 -0.019550 -0.465187  0.011928 -0.018825 -0.462295  0.014033 -0.018169 -0.458994  0.015771 -0.017674 -0.455463  0.017193 -0.017390 -0.451831  0.018343 -0.017326 -0.448180  0.019251 -0.017470 -0.444557  0.019934 -0.017792 -0.440988  0.020399 -0.018257 -0.437491  0.020644 -0.018820 -0.434079  0.020668 -0.019431 -0.430766  0.020473 -0.020032 -0.427569  0.020068 -0.020558 -0.424506  0.019470 -0.020939 -0.421593  0.018714 -0.021103 -0.418848  0.017844 -0.020975 -0.416282  0.016916 -0.020475 -0.413898  0.015992 -0.019482 -0.411697  0.000000 -0.021883 -0.477601  0.003809 -0.021576 -0.476901  0.007340 -0.020769 -0.474879  0.010388 -0.019638 -0.471790  0.012868 -0.018427 -0.468008  0.014808 -0.017340 -0.463874  0.016303 -0.016500 -0.459648  0.017455 -0.015945 -0.455482  0.018339 -0.015660 -0.451444  0.019000 -0.015608 -0.447556  0.019458 -0.015746 -0.443821  0.019721 -0.016026 -0.440236  0.019791 -0.016403 -0.436798  0.019668 -0.016828 -0.433509  0.019355 -0.017248 -0.430374  0.018865 -0.017611 -0.427401  0.018216 -0.017861 -0.424602  0.017440 -0.017940 -0.421983  0.016578 -0.017791 -0.419547  0.015679 -0.017353 -0.417289  0.014792 -0.016530 -0.415202  0.000000 -0.023554 -0.488506  0.004589 -0.023028 -0.487438  0.008684 -0.021615 -0.484304  0.011958 -0.019728 -0.479785  0.014338 -0.017804 -0.474511  0.015983 -0.016180 -0.469098  0.017119 -0.014980 -0.463894  0.017927 -0.014182 -0.459032  0.018509 -0.013717 -0.454514  0.018910 -0.013512 -0.450307  0.019148 -0.013506 -0.446368  0.019225 -0.013644 -0.442664  0.019138 -0.013876 -0.439172  0.018887 -0.014157 -0.435877  0.018475 -0.014441 -0.432773  0.017912 -0.014684 -0.429859  0.017219 -0.014840 -0.427138  0.016425 -0.014866 -0.424608  0.015566 -0.014716 -0.422268  0.014684 -0.014344 -0.420104  0.013821 -0.013678 -0.418103  0.000000 -0.026393 -0.504190  0.006029 -0.025384 -0.502176  0.011041 -0.022888 -0.497131  0.014494 -0.019660 -0.489720  0.016511 -0.016712 -0.481894  0.017580 -0.014509 -0.474535  0.018183 -0.013014 -0.468050  0.018563 -0.012053 -0.462352  0.018809 -0.011478 -0.457292  0.018947 -0.011181 -0.452732  0.018974 -0.011081 -0.448571  0.018880 -0.011119 -0.444734  0.018655 -0.011246 -0.441171  0.018295 -0.011421 -0.437852  0.017799 -0.011604 -0.434758  0.017177 -0.011760 -0.431880  0.016447 -0.011852 -0.429210  0.015634 -0.011848 -0.426744  0.014774 -0.011712 -0.424472  0.013903 -0.011410 -0.422377  0.013056 -0.010889 -0.420440  0.000000 -0.031886 -0.530585  0.008879 -0.029582 -0.527280  0.015301 -0.024352 -0.515179  0.018539 -0.018752 -0.502416  0.019427 -0.014666 -0.489755  0.019481 -0.012100 -0.479838  0.019375 -0.010505 -0.471856  0.019270 -0.009526 -0.465265  0.019174 -0.008943 -0.459652  0.019060 -0.008624 -0.454747  0.018897 -0.008485 -0.450369  0.018655 -0.008467 -0.446400  0.018316 -0.008525 -0.442765  0.017866 -0.008625 -0.439415  0.017302 -0.008737 -0.436319  0.016632 -0.008831 -0.433459  0.015871 -0.008882 -0.430822  0.015043 -0.008864 -0.428399  0.014180 -0.008754 -0.426175  0.013315 -0.008525 -0.424129  0.012477 -0.008140 -0.422237  0.000000 -0.037787 -0.581435  0.015177 -0.033412 -0.563469  0.023256 -0.023504 -0.547540  0.024105 -0.015476 -0.515245  0.022644 -0.011181 -0.497209  0.021357 -0.008790 -0.484389  0.020495 -0.007424 -0.474970  0.019922 -0.006614 -0.467559  0.019521 -0.006138 -0.461463  0.019195 -0.005872 -0.456263  0.018878 -0.005745 -0.451702  0.018521 -0.005708 -0.447624  0.018094 -0.005728 -0.443926  0.017576 -0.005780 -0.440546  0.016963 -0.005842 -0.437442  0.016257 -0.005894 -0.434591  0.015473 -0.005919 -0.431976  0.014633 -0.005901 -0.429580  0.013767 -0.005823 -0.427387  0.012905 -0.005670 -0.425373  0.012072 -0.005416 -0.423512  0.000000 -0.027655 -0.758726  0.023883 -0.023765 -0.743359  0.033191 -0.015339 -0.563650  0.029391 -0.009011 -0.527422  0.025157 -0.006107 -0.502301  0.022773 -0.004647 -0.487552  0.021298 -0.003853 -0.477013  0.020385 -0.003393 -0.469034  0.019770 -0.003125 -0.462604  0.019302 -0.002975 -0.457205  0.018883 -0.002900 -0.452524  0.018453 -0.002874 -0.448372  0.017969 -0.002878 -0.444632  0.017410 -0.002899 -0.441231  0.016765 -0.002926 -0.438121  0.016038 -0.002949 -0.435274  0.015239 -0.002959 -0.432669  0.014392 -0.002948 -0.430288  0.013523 -0.002908 -0.428113  0.012662 -0.002831 -0.426117  0.011832 -0.002705 -0.424273  0.000000  0.000000 -0.788516  0.028106  0.000000 -0.759133  0.037832  0.000000 -0.581779  0.031730  0.000000 -0.530798  0.026164  0.000000 -0.504356  0.023289  0.000000 -0.488647  0.021592  0.000000 -0.477733  0.020553  0.000000 -0.469541  0.019861  0.000000 -0.462994  0.019342  0.000000 -0.457525  0.018889  0.000000 -0.452801  0.018432  0.000000 -0.448624  0.017929  0.000000 -0.444869  0.017355  0.000000 -0.441461  0.016700  0.000000 -0.438349  0.015965  0.000000 -0.435503  0.015161  0.000000 -0.432901  0.014311  0.000000 -0.430526  0.013441  0.000000 -0.428357  0.012580  0.000000 -0.426366  0.011751  0.000000 -0.424528  0.000000 -0.010366 -0.424968  0.002211 -0.010428 -0.424729  0.004424 -0.010639 -0.423982  0.006644 -0.011005 -0.422723  0.008875 -0.011530 -0.420945  0.011126 -0.012225 -0.418632  0.013410 -0.013104 -0.415761  0.015744 -0.014187 -0.412298  0.018153 -0.015500 -0.408184  0.020668 -0.017082 -0.403335  0.023330 -0.018987 -0.397619  0.026187 -0.021290 -0.390833  0.029293 -0.024106 -0.382656  0.032695 -0.027610 -0.372566  0.036398 -0.032082 -0.359669  0.040251 -0.038031 -0.342337  0.043703 -0.046217 -0.317251  0.044711 -0.059097 -0.277381  0.043125 -0.074577 -0.200430  0.068655 -0.105108 -0.092104  0.102968 -0.104185 -0.035587  0.000000 -0.011035 -0.426852  0.002338 -0.011098 -0.426619  0.004681 -0.011311 -0.425890  0.007033 -0.011679 -0.424663  0.009403 -0.012210 -0.422932  0.011801 -0.012913 -0.420686  0.014243 -0.013806 -0.417907  0.016751 -0.014908 -0.414564  0.019358 -0.016251 -0.410610  0.022102 -0.017873 -0.405972  0.025038 -0.019833 -0.400539  0.028236 -0.022208 -0.394137  0.031783 -0.025114 -0.386496  0.035782 -0.028720 -0.377183  0.040342 -0.033284 -0.365464  0.045516 -0.039190 -0.350108  0.051082 -0.047050 -0.328360  0.056095 -0.057095 -0.296629  0.052733 -0.068897 -0.234459  0.070195 -0.070885 -0.146793  0.104242 -0.069777 -0.091850  0.000000 -0.011730 -0.428878  0.002424 -0.011792 -0.428652  0.004853 -0.012006 -0.427942  0.007291 -0.012376 -0.426748  0.009747 -0.012911 -0.425067  0.012231 -0.013621 -0.422892  0.014761 -0.014525 -0.420209  0.017360 -0.015645 -0.416996  0.020058 -0.017014 -0.413216  0.022898 -0.018674 -0.408811  0.025934 -0.020685 -0.403692  0.029235 -0.023127 -0.397722  0.032888 -0.026114 -0.390691  0.036992 -0.029809 -0.382267  0.041643 -0.034436 -0.371926  0.046865 -0.040286 -0.358762  0.052409 -0.047625 -0.341323  0.057104 -0.055802 -0.316280  0.062031 -0.062475 -0.280197  0.068288 -0.053309 -0.234443  0.073763 -0.044023 -0.200488  0.000000 -0.012416 -0.431085  0.002474 -0.012477 -0.430864  0.004951 -0.012690 -0.430172  0.007434 -0.013059 -0.429010  0.009931 -0.013591 -0.427378  0.012450 -0.014302 -0.425272  0.015007 -0.015207 -0.422686  0.017621 -0.016334 -0.419604  0.020320 -0.017713 -0.416001  0.023139 -0.019388 -0.411835  0.026122 -0.021418 -0.407042  0.029323 -0.023880 -0.401521  0.032801 -0.026877 -0.395122  0.036608 -0.030544 -0.387620  0.040760 -0.035043 -0.378669  0.045164 -0.040527 -0.367756  0.049455 -0.046901 -0.354084  0.053188 -0.053509 -0.336758  0.055422 -0.057465 -0.316303  0.056654 -0.056568 -0.296698  0.058564 -0.045409 -0.277484  0.000000 -0.013063 -0.433499  0.002494 -0.013123 -0.433284  0.004987 -0.013331 -0.432607  0.007482 -0.013692 -0.431472  0.009982 -0.014215 -0.429883  0.012493 -0.014913 -0.427840  0.015026 -0.015807 -0.425343  0.017595 -0.016920 -0.422385  0.020221 -0.018283 -0.418953  0.022928 -0.019939 -0.415020  0.025745 -0.021939 -0.410545  0.028700 -0.024349 -0.405463  0.031815 -0.027250 -0.399678  0.035088 -0.030732 -0.393052  0.038458 -0.034876 -0.385397  0.041751 -0.039677 -0.376468  0.044646 -0.044907 -0.366022  0.046603 -0.049729 -0.354110  0.047296 -0.052723 -0.341377  0.046696 -0.051488 -0.328437  0.045823 -0.044237 -0.317331  0.000000 -0.013643 -0.436143  0.002489 -0.013700 -0.435931  0.004975 -0.013899 -0.435264  0.007454 -0.014245 -0.434150  0.009927 -0.014748 -0.432593  0.012396 -0.015422 -0.430601  0.014865 -0.016285 -0.428180  0.017344 -0.017361 -0.425331  0.019842 -0.018678 -0.422053  0.022374 -0.020274 -0.418335  0.024949 -0.022189 -0.414155  0.027575 -0.024472 -0.409479  0.030238 -0.027175 -0.404256  0.032898 -0.030339 -0.398416  0.035453 -0.033964 -0.391879  0.037721 -0.037951 -0.384570  0.039419 -0.041980 -0.376492  0.040245 -0.045404 -0.367804  0.039986 -0.047141 -0.358832  0.038873 -0.045859 -0.350193  0.037690 -0.040673 -0.342422  0.000000 -0.014134 -0.439034  0.002467 -0.014186 -0.438822  0.004926 -0.014371 -0.438159  0.007370 -0.014694 -0.437052  0.009794 -0.015166 -0.435513  0.012194 -0.015799 -0.433554  0.014572 -0.016612 -0.431188  0.016927 -0.017626 -0.428426  0.019264 -0.018867 -0.425278  0.021582 -0.020362 -0.421745  0.023880 -0.022143 -0.417825  0.026145 -0.024237 -0.413506  0.028345 -0.026668 -0.408772  0.030421 -0.029432 -0.403601  0.032267 -0.032479 -0.397974  0.033729 -0.035657 -0.391901  0.034620 -0.038661 -0.385442  0.034769 -0.040974 -0.378735  0.034149 -0.041887 -0.372011  0.032986 -0.040635 -0.365559  0.031769 -0.036742 -0.359766  0.000000 -0.014515 -0.442193  0.002434 -0.014561 -0.441978  0.004854 -0.014727 -0.441307  0.007249 -0.015019 -0.440192  0.009609 -0.015446 -0.438649  0.011926 -0.016024 -0.436697  0.014193 -0.016768 -0.434359  0.016406 -0.017697 -0.431654  0.018561 -0.018832 -0.428601  0.020651 -0.020195 -0.425217  0.022664 -0.021802 -0.421511  0.024577 -0.023667 -0.417492  0.026351 -0.025785 -0.413165  0.027925 -0.028127 -0.408536  0.029211 -0.030611 -0.403622  0.030097 -0.033080 -0.398459  0.030473 -0.035269 -0.393117  0.030271 -0.036799 -0.387703  0.029527 -0.037208 -0.382367  0.028430 -0.036034 -0.377293  0.027308 -0.032982 -0.372678  0.000000 -0.014774 -0.445651  0.002396 -0.014811 -0.445428  0.004772 -0.014953 -0.444735  0.007113 -0.015204 -0.443588  0.009401 -0.015575 -0.442011  0.011624 -0.016082 -0.440033  0.013772 -0.016738 -0.437684  0.015834 -0.017562 -0.434996  0.017803 -0.018570 -0.431998  0.019665 -0.019776 -0.428717  0.021405 -0.021186 -0.425175  0.022998 -0.022800 -0.421392  0.024404 -0.024598 -0.417388  0.025571 -0.026533 -0.413185  0.026436 -0.028515 -0.408814  0.026926 -0.030401 -0.404318  0.026987 -0.031978 -0.399760  0.026602 -0.032973 -0.395223  0.025832 -0.033079 -0.390806  0.024825 -0.032000 -0.386621  0.023808 -0.029536 -0.382786  0.000000 -0.014898 -0.449456  0.002360 -0.014925 -0.449217  0.004695 -0.015036 -0.448481  0.006980 -0.015238 -0.447270  0.009196 -0.015542 -0.445618  0.011323 -0.015963 -0.443566  0.013348 -0.016517 -0.441158  0.015260 -0.017220 -0.438438  0.017045 -0.018084 -0.435446  0.018692 -0.019118 -0.432217  0.020182 -0.020321 -0.428783  0.021493 -0.021683 -0.425172  0.022592 -0.023173 -0.421412  0.023440 -0.024739 -0.417533  0.023994 -0.026297 -0.413568  0.024214 -0.027720 -0.409560  0.024079 -0.028846 -0.405563  0.023601 -0.029477 -0.401638  0.022840 -0.029404 -0.397854  0.021916 -0.028425 -0.394279  0.020990 -0.026395 -0.390980  0.000000 -0.014878 -0.453685  0.002333 -0.014893 -0.453420  0.004633 -0.014968 -0.452610  0.006870 -0.015112 -0.451287  0.009017 -0.015337 -0.449502  0.011052 -0.015660 -0.447312  0.012958 -0.016099 -0.444782  0.014722 -0.016669 -0.441967  0.016333 -0.017380 -0.438921  0.017780 -0.018237 -0.435687  0.019047 -0.019234 -0.432304  0.020