<?xml version="1.0"?>
<VTKFile type="UnstructuredGrid" version="0.1" byte_order="LittleEndian">
    <UnstructuredGrid>
        <Piece NumberOfPoints="3172" NumberOfCells="14894">
            <Points>
                <DataArray type="Float32" NumberOfComponents="3" format="ascii">
                    -31.476796   2.149140 100.803992 -34.688943   2.788712  97.513667 -33.344902   0.000323  99.656490 -35.454748   0.062052  96.947175 -33.063231  -3.378159  99.182065 -34.802252   5.077390  95.481493 -31.116099  -5.118879  99.791950 -29.098956  -5.055885 100.823112 -31.163268  -2.747637 100.831304 -30.278672  -0.407738 101.662330 -28.214469  -2.973640 101.932346 -25.978776  -3.094094 102.176847 -29.969758  -6.941266  99.089394 -30.737606  -5.439427  97.949256 -32.842022   3.433243  99.363110 -33.020994   6.868094  96.347479 -33.621949   4.985835  97.574069 -31.888819   6.035070  98.540653 -30.589928   4.595347 100.401952 -28.092429   2.618236 102.055305 -28.864548   2.748774  99.780535 -30.539419   2.942140  99.086781 -27.886504   5.437103 100.960726 -27.070721   0.791754 100.826043 -26.918672  -0.472715 102.551104 -24.237493  -1.715276 102.377625 -24.629199   1.459207 102.463207 -25.531452   4.440200 101.688269 -29.205257   7.090920  99.332567 -26.143300   7.131640 100.012432 -30.856661   8.201864  96.988193 -33.043921   3.398792  96.404321 -31.699374   1.615666  97.570109 -29.720310   0.815136  99.763224 -32.371736   4.873908  95.764067 -36.001678   2.885032  94.688065 -33.515319   1.602654  95.277129 -33.256718   3.696764  94.501264 -32.317452  -6.047869  98.129696 -34.698047  -2.124016  97.770598 -34.328523  -4.721514  96.772303 -30.831981  -1.212448  98.714739 -32.620655  -0.748946  97.141617 -31.065326  -3.629849  97.261932 -36.682300   0.516924  93.428246 -36.138127  -2.231123  94.772967 -34.423626  -0.554465  94.904487 -32.717811  -2.722879  96.142418 -34.756526   3.352421  93.361951 -36.373226   3.094345  92.483844 -33.990391   7.001631  94.043792 -35.490364   5.043889  93.259776 -33.485554   5.175587  92.841765 -22.637536   3.076817 101.713028 -23.633434   5.807413 100.732068 -29.248630  -4.245359  98.214916 -28.065987  -3.176583  99.503211 -27.701326  -7.000950  99.908783 -27.339934  -4.736850  98.698335 -26.675269  -5.061941 101.354490 -28.150590  -3.188637  96.918177 -28.068386  -0.939163  99.691248 -27.237281   0.887064  99.358123 -26.499501  -2.870296 100.171497 -24.630951  -2.469463 100.877782 -24.177161  -4.396419 101.584392 -23.259671  -1.335236 100.521490 -21.799607  -0.113142 101.883994 -22.448168  -3.099115 101.646026 -30.634499  -5.735610  96.215014 -24.646290  -6.781358 100.230819 -30.856803  -8.201260  96.988193 -28.292369  -8.795753  97.791146 -28.559065  -6.291139  97.225768 -25.543794  -8.740955  98.349100 -31.285608   6.362790  94.970557 -31.836541   8.796383  94.486030 -32.359574   6.648846  92.072263 -32.584858   8.741631  91.782895 -21.179150   5.529303  99.978815 -30.712732   4.284883  97.897574 -30.942153   5.687498  96.806697 -28.899279   4.429634  98.672110 -30.826189   3.821215  95.731989 -23.722588   1.184914 100.003574 -27.177865   2.799421  99.768066 -25.994103   2.164960 100.370559 -28.274709   1.444087  98.235277 -28.682623   2.799896  97.275028 -27.214070   4.603237  98.741945 -25.524716  -0.329174  99.795271 -26.415016   1.361336  98.787732 -24.639346   3.757123  99.655990 -23.119032   7.960617  98.783181 -24.869048   5.804349  98.223120 -27.984905   8.745708  97.975701 -25.549375   8.987537  98.021842 -20.327185   2.464898 100.875201 -22.824633   5.605446  98.202460 -18.741062   4.306759  98.959182 -33.324541  -7.071381  95.511856 -32.061809  -8.732268  94.188474 -34.255099  -7.067077  92.507270 -29.874762  -4.461091  95.576246 -32.277183  -8.973732  91.748146 -28.599837   6.231158  96.876594 -26.730842   6.255545  97.264246 -29.183362   7.563660  94.364846 -27.621547   8.437940  95.448334 -29.127936   9.933549  95.134336 -26.354531  10.150936  95.957461 -31.297600   2.016541  95.462923 -31.972579  -0.035153  95.571900 -32.361390   0.766106  94.438457 -28.671417  -1.420726  97.603088 -30.057914   0.152157  96.355127 -29.370874   4.857501  94.190694 -31.497717   4.527603  93.327318 -30.394337   2.900607  94.121312 -34.276383   1.497444  93.040162 -31.924373   2.163592  93.245553 -33.263125   3.368876  92.056697 -34.593247   2.338277  90.895132 -36.694903   1.714978  90.759231 -34.614956  -0.398020  92.464581 -32.155501  -5.013185  94.610994 -34.005121  -2.814798  94.757422 -35.090043  -5.364905  94.229196 -30.760338  -1.504515  95.687200 -31.332954  -3.541019  94.423186 -29.345612  -2.601053  95.289749 -36.759754  -1.456623  91.514772 -36.372065   0.119748  88.293238 -35.950953  -4.370926  91.901431 -34.154134  -2.376289  92.361546 -35.090127  -5.802071  89.991837 -36.121073  -3.139008  89.102798 -32.492269  -1.001939  93.609986 -31.590337   0.473311  92.886567 -35.909799   4.392164  90.644586 -34.525783   6.780778  91.021263 -36.092270   3.090181  88.923100 -33.113099   5.035892  90.793323 -35.350949   0.137156  85.948689 -21.987472   3.663046  99.240072 -21.396553   4.442820  97.681098 -27.758185  -4.499807  96.160833 -26.514648  -2.192470  98.166330 -26.312786  -5.959136  97.421376 -26.125673  -3.978583  97.149297 -24.463718  -4.054608  99.240882 -23.652073  -5.875004  98.377661 -27.366975  -2.675180  95.593114 -26.775141  -0.542828  97.446923 -27.627580   0.674207  96.391435 -24.033552  -0.826972  98.090462 -24.310004  -2.402852  98.521794 -22.584411  -2.615742  99.415156 -21.695287  -5.466410 100.277631 -21.630169  -1.228450  99.696465 -21.673629   0.872697  98.972722 -20.317302   2.118552  98.530872 -19.531326  -0.134317 100.701698 -20.378199  -2.737770 100.828539 -20.119858  -2.619258  98.671039 -18.976443  -4.463964  99.083067 -30.681810  -6.875906  93.855206 -28.402412  -5.574486  95.087162 -28.917711  -7.750422  94.627149 -22.773674  -8.175462  98.400296 -26.459021  -8.305474  95.753697 -27.855505  -9.014885  93.669718 -29.128108  -9.932975  95.134336 -26.229623 -10.272453  95.683228 -30.161697 -10.142022  92.426831 -31.200041  -9.588874  90.288951 -20.083569  -7.104426  97.879657 -23.529513  -9.807208  96.204533 -27.092571  -6.459661  95.062041 -24.970170  -7.231299  96.030915 -32.829344   8.176018  89.023285 -30.387354   7.377636  92.390868 -29.877824  10.272976  92.281190 -30.754622   5.697305  91.265369 -31.844980   6.950358  89.678418 -29.954437   6.889608  90.104545 -30.587039   9.806919  89.621947 -24.145085   9.595958  96.849957 -20.036684   7.019123  97.932712 -21.553583   9.179954  96.122494 -28.541486   4.282934  96.298612 -28.742701   2.732143  95.266160 -24.016606   1.982839  97.808879 -25.798783   3.158985  98.032475 -26.580537   2.175605  96.318937 -26.517979   4.264263  96.961635 -25.714409   0.630228  97.452800 -23.211863   4.001454  97.536378 -24.680723   5.121905  96.418559 -23.475389   7.473546  96.772862 -26.516439   6.714495  94.617770 -25.361032   7.665030  95.988300 -18.085438   1.225593  99.441988 -17.825894   5.821694  96.657600 -16.787359   2.894602  97.381835 -22.318425   5.662775  96.109738 -19.151460   3.052167  96.893917 -20.152156   5.584032  96.224409 -21.143051   3.622990  95.916092 -32.999689  -6.159636  92.237015 -31.881617  -6.735260  90.039986 -33.179462  -7.963095  89.378577 -28.715388  -3.538923  94.014191 -30.260855  -4.989742  93.040350 -29.772885  -7.630471  91.915865 -28.412006  -4.633942  92.617213 -30.650319  -9.185944  87.673014 -27.155235   5.165339  94.449718 -27.857280   3.668508  93.672105 -25.740936   8.621566  94.657067 -27.629814   8.498330  93.167570 -28.416551   5.964781  92.770096 -28.513484   7.479492  91.946580 -27.038707  10.893244  93.191876 -27.915741  10.814287  90.286347 -23.928311  10.655620  94.017762 -30.271092   0.497615  94.344395 -28.388486  -1.300911  94.943107 -29.106353   2.203237  93.300582 -26.931082   1.434534  94.355800 -29.697379   3.686118  92.252060 -35.418747   2.734414  86.800617 -34.491867   2.374296  88.233727 -29.765454   4.430559  90.601908 -31.047094   8.859791  87.439341 -29.761142  -1.166998  93.267725 -27.498887  -2.785988  93.061557 -33.216758   3.377653  89.903114 -31.084729   3.383984  91.118686 -34.276544   1.704487  86.727207 -34.262727   0.112054  86.868248 -30.324542   1.455364  91.751117 -32.772893   0.558674  91.472306 -34.195056   0.878369  89.919175 -33.370696   1.060528  88.245629 -33.387949  -1.627834  90.851836 -32.514731  -4.010228  92.595750 -31.014477  -2.448338  92.775237 -33.900093  -1.247858  88.689733 -35.471612  -2.459384  86.758271 -33.286216  -4.298000  90.124620 -34.537350  -5.515547  87.573120 -33.473764  -3.021249  88.186334 -30.549149  -0.921390  91.422018 -34.782499   5.457837  88.077478 -31.743163   4.959602  89.104060 -29.877999   5.443158  89.367559 -33.759207   4.480908  85.273876 -32.567168  -7.070533  86.347945 -33.595361  -4.382255  85.001837 -34.154821   1.578606  84.440475 -34.193197  -1.223092  84.415911 -21.800194   2.418179  96.889247 -26.350152  -4.285798  94.847164 -25.590108  -2.534381  96.613183 -24.536383  -4.546424  96.506458 -21.860514  -5.798847  96.896443 -22.970441  -3.652700  97.987479 -23.469715  -6.093997  95.573031 -26.120559  -1.262675  94.630527 -25.096273  -0.020835  96.024163 -23.934469  -2.310831  96.411388 -22.152794  -0.078539  96.683613 -21.969304  -1.933316  97.221266 -20.917915  -4.116992  97.303877 -19.617617  -0.365363  98.315064 -19.923795   0.667345  97.121402 -18.111488  -1.575738  99.405104 -16.514424  -0.134931  97.663945 -19.804456  -1.854660  96.550031 -16.852027  -3.088581  97.381017 -19.249383  -4.012565  97.102627 -21.318362  -8.859528  96.511766 -20.306165  -5.918893  95.701498 -17.881361  -5.893723  96.660058 -29.646802  -7.898789  89.277769 -29.208353  -8.967810  91.077140 -26.821115  -5.333695  92.358751 -28.266152  -6.770647  92.550619 -26.212724  -7.224089  93.461473 -22.480869  -7.918172  95.045071 -24.934987  -8.534207  94.218553 -27.074252  -8.674021  91.631666 -26.264630  -9.447793  93.1449
[...]
            <PointData>
                <DataArray type="Float32" Name="U0" NumberOfComponents="3" format="ascii">
                    -64.969433  -1.527580 -30.444730 -61.878153  -1.443736 -33.433908 -63.895329  -1.498260 -32.239112 -61.350544  -1.432607 -34.213882 -63.454603  -1.490367 -32.048048 -59.962740  -1.394117 -33.484497 -64.029113  -1.508080 -30.259882 -64.996725  -1.534681 -28.372444 -65.000772  -1.528567 -30.257341 -65.776612  -1.548035 -29.388224 -66.033658  -1.558105 -27.520317 -66.264460  -1.565200 -25.507422 -63.371558  -1.496212 -29.219230 -62.299357  -1.470562 -29.910163 -63.614572  -1.489596 -31.688504 -60.772434  -1.415283 -31.768019 -61.930375  -1.444888 -32.379409 -62.835750  -1.469438 -30.727071 -64.588115  -1.517198 -29.547218 -66.143465  -1.564708 -27.327550 -64.008158  -1.502872 -28.007719 -63.358727  -1.485555 -29.549185 -65.108390  -1.533102 -26.994353 -64.993069  -1.534167 -26.405125 -66.612045  -1.572818 -26.324463 -66.458179  -1.577842 -23.830724 -66.535860  -1.580626 -24.109192 -65.794128  -1.560487 -24.807865 -63.576563  -1.491094 -28.180265 -64.212562  -1.514188 -25.298035 -61.370411  -1.432006 -29.700983 -60.834241  -1.419187 -31.874236 -61.935175  -1.450621 -30.660227 -63.998519  -1.507521 -28.842349 -60.228217  -1.403272 -31.205802 -59.221409  -1.376610 -34.662244 -59.778376  -1.395026 -32.357607 -59.043290  -1.374619 -32.063394 -62.470073  -1.471048 -31.405026 -62.127569  -1.454914 -33.554172 -61.192904  -1.435036 -33.263931 -63.015440  -1.484160 -29.916533 -61.535883  -1.442877 -31.575645 -61.652071  -1.453714 -30.179215 -58.040711  -1.348836 -35.355939 -59.310063  -1.383704 -34.907989 -59.431660  -1.388096 -33.258535 -60.598502  -1.422865 -31.707374 -57.972644  -1.346927 -33.479423 -57.146918  -1.324834 -35.005216 -58.605322  -1.360329 -32.673859 -57.872601  -1.342085 -34.130434 -57.478521  -1.334671 -32.240728 -65.821704  -1.566995 -22.116322 -64.890590  -1.536519 -22.970358 -62.547777  -1.480853 -28.494432 -63.757567  -1.511450 -27.379358 -64.140343  -1.520771 -27.093056 -62.999298  -1.497985 -26.716680 -65.497193  -1.552769 -26.107579 -61.324068  -1.452556 -27.439740 -63.933854  -1.512948 -27.346923 -63.611414  -1.500325 -26.532625 -64.384659  -1.530370 -25.934738 -65.039080  -1.546380 -24.181996 -65.706979  -1.561001 -23.749167 -64.693990  -1.535926 -22.839473 -65.989963  -1.570502 -21.400727 -65.765689  -1.563033 -22.089511 -60.668661  -1.432559 -29.815767 -64.437928  -1.531686 -24.216086 -61.398048  -1.450131 -30.076028 -62.151208  -1.473589 -27.678622 -61.616987  -1.461475 -27.880935 -62.672110  -1.490041 -25.091774 -59.476745  -1.384945 -30.146961 -59.015399  -1.372054 -30.605483 -56.750082  -1.316968 -31.145364 -56.472579  -1.308994 -31.308218 -64.177860  -1.521811 -20.658099 -62.235707  -1.454818 -29.669678 -61.205585  -1.427971 -29.845223 -62.961248  -1.472521 -27.969683 -60.199280  -1.405003 -29.780713 -64.203309  -1.518632 -23.208632 -63.990695  -1.501730 -26.424171 -64.557673  -1.520137 -25.339191 -62.557640  -1.471088 -27.471205 -61.651159  -1.443493 -27.807927 -63.021551  -1.475759 -26.383577 -64.017437  -1.513877 -24.960172 -63.069358  -1.485002 -25.737136 -63.877799  -1.502472 -23.985010 -63.050113  -1.488429 -22.423664 -62.526579  -1.468927 -24.133705 -62.294600  -1.459759 -26.986371 -62.334444  -1.465291 -24.686049 -65.031634  -1.548947 -19.931698 -62.503682  -1.473705 -22.208209 -63.216778  -1.503192 -18.384039 -60.010261  -1.410687 -32.370511 -58.765735  -1.384453 -31.218177 -57.183840  -1.340475 -33.243212 -60.065255  -1.418959 -29.074329 -56.470055  -1.328682 -31.423735 -61.266739  -1.431392 -27.630258 -61.626959  -1.442243 -25.873187 -58.901123  -1.372566 -28.138429 -59.916119  -1.399518 -26.648871 -59.619946  -1.390452 -28.029835 -60.390559  -1.414247 -25.413962 -59.951098  -1.401497 -30.266131 -60.058196  -1.407086 -30.947952 -58.990264  -1.378748 -31.290987 -61.968560  -1.463262 -27.899788 -60.793195  -1.427770 -29.153853 -58.743929  -1.369802 -28.381954 -57.935528  -1.348493 -30.387196 -58.685187  -1.370274 -29.391671 -57.673848  -1.342679 -33.070565 -57.864650  -1.349626 -30.844158 -56.743997  -1.318998 -32.072294 -55.653346  -1.291980 -33.346056 -55.526870  -1.286247 -35.338035 -57.135680  -1.331473 -33.431294 -59.160189  -1.391913 -31.226041 -59.296196  -1.388413 -32.915972 -58.802365  -1.376286 -33.992072 -60.168086  -1.414777 -29.844313 -58.981191  -1.387818 -30.420693 -59.793007  -1.410893 -28.539211 -56.243437  -1.307126 -35.472678 -53.208662  -1.232308 -35.068886 -56.611229  -1.320703 -34.777515 -57.041568  -1.332697 -33.042313 -54.815481  -1.279799 -33.998506 -53.975722  -1.254943 -34.907333 -58.213974  -1.362729 -31.451604 -57.530012  -1.344986 -30.568174 -55.413312  -1.282166 -34.537780 -55.761905  -1.290385 -33.180375 -53.795788  -1.243823 -34.737806 -55.551133  -1.288406 -31.890184 -51.000995  -1.180218 -34.104693 -63.482492  -1.501183 -21.474360 -62.011555  -1.465134 -20.890471 -60.610918  -1.437347 -27.091244 -62.493108  -1.481995 -25.905029 -61.795891  -1.471145 -25.764009 -61.535725  -1.463184 -25.554046 -63.498752  -1.515038 -24.007399 -62.688579  -1.495642 -23.259844 -60.073247  -1.421944 -26.685351 -61.813312  -1.459851 -26.103966 -60.820110  -1.430569 -26.863885 -62.405510  -1.479765 -23.533947 -62.816811  -1.493600 -23.830760 -63.653719  -1.516368 -22.200373 -64.477136  -1.536213 -21.406017 -63.915207  -1.519697 -21.263981 -63.229507  -1.500181 -21.254219 -62.813342  -1.490170 -19.931199 -64.868865  -1.545102 -19.243815 -64.992204  -1.546952 -20.105237 -62.951934  -1.500683 -19.855637 -63.346199  -1.511954 -18.811991 -58.449272  -1.379918 -29.879049 -59.603582  -1.412239 -27.712247 -59.173874  -1.401817 -28.240387 -62.714267  -1.496187 -22.472595 -60.229905  -1.432320 -25.940709 -58.272480  -1.382097 -27.265813 -59.653829  -1.412424 -28.485396 -60.166318  -1.430749 -25.765830 -57.107627  -1.349254 -29.459409 -55.096566  -1.297620 -30.422032 -62.218862  -1.486081 -19.911227 -60.651990  -1.445916 -23.213988 -59.577821  -1.414772 -26.497952 -60.485538  -1.440780 -24.518630 -53.876844  -1.246196 -31.548995 -57.046046  -1.325992 -29.271900 -56.935269  -1.323307 -28.724393 -55.991824  -1.301237 -29.654716 -54.496316  -1.262867 -30.650193 -54.895428  -1.274972 -28.870837 -54.434522  -1.261817 -29.400237 -61.228469  -1.439124 -23.347527 -62.246334  -1.474000 -19.539972 -60.540307  -1.426879 -20.915559 -60.727153  -1.419528 -27.627122 -59.759148  -1.398327 -27.851401 -62.136504  -1.463630 -23.439767 -62.351449  -1.462651 -25.092358 -60.744759  -1.425393 -25.840488 -61.345480  -1.436580 -25.728643 -61.810600  -1.456932 -25.078288 -61.877345  -1.457356 -22.617942 -60.827315  -1.427274 -23.968942 -61.156621  -1.437972 -22.770668 -59.135530  -1.382277 -25.650119 -60.421453  -1.415458 -24.541356 -63.675800  -1.517287 -17.841438 -61.044353  -1.448189 -17.482919 -61.728863  -1.469218 -16.573657 -60.531530  -1.425510 -21.724576 -61.267959  -1.453244 -18.802210 -60.636586  -1.433316 -19.683180 -60.347664  -1.425475 -20.667249 -56.928108  -1.336686 -32.041113 -54.860359  -1.288867 -30.997926 -54.239691  -1.271672 -32.248114 -58.592073  -1.384323 -27.959750 -57.680161  -1.360288 -29.439791 -56.623780  -1.337539 -29.036508 -57.278146  -1.353951 -27.690471 -52.633778  -1.238130 -29.891883 -58.981703  -1.378259 -26.290441 -58.254936  -1.361668 -26.985211 -59.167622  -1.384084 -24.872361 -57.770029  -1.346980 -26.650743 -57.402656  -1.337831 -27.451522 -56.624992  -1.317970 -27.504328 -57.787308  -1.348280 -26.037858 -55.054304  -1.280876 -26.861985 -58.560323  -1.373009 -23.114632 -58.900451  -1.380334 -29.333955 -59.462312  -1.401593 -27.610962 -57.911876  -1.354729 -28.193328 -58.899153  -1.382952 -26.173234 -56.923277  -1.327289 -28.709617 -51.798107  -1.196837 -34.110248 -53.148496  -1.231261 -33.246156 -55.369316  -1.288888 -28.750065 -52.382801  -1.212670 -29.853046 -57.888359  -1.359863 -28.887200 -57.691014  -1.362820 -26.793264 -54.717318  -1.269763 -32.024426 -55.859485  -1.300406 -30.018843 -51.731366  -1.197890 -33.057010 -51.867559  -1.203117 -33.080242 -56.457830  -1.318961 -29.349532 -56.199621  -1.310375 -31.674431 -54.738007  -1.272151 -33.003228 -53.162255  -1.234909 -32.219446 -55.619803  -1.298475 -32.301519 -57.263119  -1.343665 -31.537559 -57.428717  -1.348565 -30.091528 -53.584437  -1.247346 -32.771835 -51.767498  -1.201567 -34.278537 -54.938513  -1.285553 -32.265468 -52.538588  -1.225074 -33.469225 -53.112981  -1.238989 -32.409846 -56.153125  -1.315750 -29.614448 -52.994246  -1.224122 -33.449948 -53.960737  -1.251575 -30.598038 -54.206045  -1.259394 -28.829493 -50.356326  -1.162851 -32.505085 -51.386058  -1.202123 -31.647767 -50.115868  -1.166403 -32.553343 -49.577898  -1.146240 -32.943383 -49.559751  -1.148830 -33.043391 -61.265754  -1.447609 -21.322882 -59.370077  -1.409335 -25.755444 -61.026022  -1.448273 -25.020466 -60.926255  -1.451332 -24.062380 -61.289884  -1.462790 -21.560985 -62.312783  -1.485534 -22.576868 -60.047755  -1.431741 -23.081276 -59.159483  -1.397634 -25.474908 -60.465008  -1.427455 -24.495332 -60.828899  -1.445349 -23.453030 -61.075011  -1.447780 -21.718813 -61.584854  -1.464437 -21.589018 -61.667498  -1.471021 -20.638514 -62.612039  -1.489813 -19.328553 -61.484591  -1.460081 -19.591492 -63.644453  -1.518356 -17.932222 -61.998340  -1.478940 -16.387500 -60.950129  -1.451032 -19.535141 -61.736603  -1.475459 -16.773304 -61.476574  -1.467541 -19.058102 -60.935765  -1.455577 -21.110976 -60.162152  -1.436674 -20.093271 -61.064440  -1.461125 -17.806373 -54.141878  -1.276858 -28.918376 -55.835113  -1.319860 -28.533621 -57.031833  -1.351815 -26.206929 -57.217624  -1.354687 -27.600402 -58.070769  -1.379889 -25.679897 -59.553677  -1.421138 -22.184279 -58.782387  -1.399599 -24.507055 -56.352999  -1.336755 -26.517705 -57.776401  -1.373095 -25.776395 -57.560054  -1.365862 -26.820004 -58.188476  -1.385991 -24.037786 -54.684776  -1.293439 -27.773803 -59.700372  -1.428319 -19.141526 -58.398645  -1.394632 -21.328189 -58.423208  -1.389917 -24.383969 -58.033999  -1.382406 -23.472180 -51.319199  -1.186018 -31.258035 -54.981360  -1.277922 -27.512074 -54.939544  -1.278373 -27.428279 -53.075314  -1.231073 -28.762322 -52.392038  -1.216731 -27.280115 -59.625589  -1.408500 -18.825261 -59.263152  -1.391506 -22.538120 -57.893675  -1.362179 -20.392385 -59.579842  -1.403845 -20.637923 -59.008191  -1.393942 -19.217699 -59.594985  -1.396033 -25.592515 -57.505986  -1.345797 -24.723043 -57.450974  -1.341536 -25.544295 -60.143267  -1.413711 -24.018879 -60.025390  -1.412796 -22.462270 -59.062970  -1.385732 -23.358223 -57.912040  -1.356796 -23.380630 -58.363076  -1.375217 -24.651162 -58.455086  -1.383445 -16.955800 -59.209001  -1.401919 -18.278102 -60.932561  -1.449437 -17.533950 -59.807600  -1.420236 -17.243301 -60.016785  -1.429754 -15.408484 -59.483943  -1.412319 -15.911275 -59.456715  -1.409742 -18.861913 -58.844684  -1.389322 -21.161020 -59.996565  -1.421342 -20.402366 -59.555690  -1.416468 -18.481545 -58.882097  -1.386344 -21.472568 -58.777106  -1.388265 -19.816011 -57.740101  -1.365023 -18.750035 -55.444220  -1.306182 -29.323012 -52.725196  -1.237601 -30.251225 -56.249177  -1.324341 -28.826942 -55.488235  -1.309759 -27.292496 -55.486207  -1.312867 -27.239010 -51.924241  -1.225075 -27.296123 -52.206122  -1.231258 -27.926671 -53.804776  -1.269064 -28.075725 -51.350278  -1.207074 -28.919082 -50.485715  -1.185069 -29.139489 -56.591041  -1.321233 -26.574857 -56.621779  -1.325629 -27.024052 -57.264775  -1.343123 -25.089055 -57.315846  -1.359031 -24.717502 -57.071670  -1.337579 -22.683536 -55.729916  -1.300630 -24.905645 -55.851530  -1.303846 -25.414977 -53.533355  -1.247697 -25.005251 -55.716458  -1.301771 -24.158034 -56.049448  -1.313846 -21.960119 -57.041711  -1.344879 -18.426899 -55.308270  -1.299628 -20.257886 -57.423131  -1.348540 -27.294914 -56.990693  -1.342808 -25.819021 -56.295287  -1.323758 -25.329409 -55.362919  -1.292218 -28.141028 -54.572815  -1.271750 -27.407696 -52.200200  -1.210171 -31.614193 -53.457191  -1.242822 -29.328384 -54.810978  -1.283015 -27.676455 -55.394283  -1.311545 -25.419839 -50.352155  -1.167401 -28.773564 -52.631846  -1.222909 -27.903622 -55.307657  -1.301084 -27.692865 -55.420374  -1.308001 -25.335698 -53.639144  -1.248945 -30.275652 -50.926332  -1.183066 -30.859783 -51.511525  -1.197518 -31.885460 -54.158681  -1.264509 -30.791461 -54.457193  -1.276236 -30.416580 -51.589972  -1.202580 -31.316270 -52.098912  -1.218647 -30.939084 -53.387413  -1.250410 -28.648031 -51.485716  -1.193279 -30.061704 -49.543595  -1.150491 -30.278427 -50.090537  -1.160377 -30.598110 -49.175166  -1.137768 -30.285824 -48.257164  -1.116820 -31.086858 -49.917160  -1.161212 -30.826145 -50.780452  -1.189919 -29.685075 -49.942737  -1.164797 -30.705818 -49.119652  -1.146327 -30.541195 -48.221660  -1.120655 -31.249591 -47.969452  -1.111665 -31.445943 -59.011706  -1.393585 -22.453802 -57.383519  -1.357430 -23.411973 -58.585330  -1.396552 -21.892070 -57.305914  -1.362749 -22.771382 -58.966992  -1.401125 -23.817618 -60.181530  -1.433299 -22.127269 -59.341590  -1.408063 -22.625088 -59.567439  -1.419964 -19.360720 -59.481277  -1.414353 -20.674744 -60.332120  -1.438095 -17.618006 -60.038371  -1.434196 -15.476256 -58.529904  -1.393545 -18.593203 -59.455452  -1.423253 -16.154826 -57.572229  -1.372615 -19.967602 -58.219890  -1.390698 -20.207989 -58.610286  -1.400206 -18.568374 -58.446916  -1.400156 -17.369530 -54.525040  -1.292571 -26.140998 -56.045971  -1.331095 -24.733489 -56.388626  -1.339533 -25.238801 -57.108534  -1.361857 -22.266535 -56.455555  -1.342949 -24.426525 -55.544329  -1.319929 -24.887877 -56.221863  -1.339816 -22.675249 -54.767244  -1.301568 -24.245045 -53.368301  -1.265012 -25.357969 -56.938975  -1.362546 -18.970047 -55.773261  -1.331125 -20.971217 -56.399527  -1.344660 -20.891497 -56.231124  -1.337832 -23.079650 -51.102635  -1.185828 -28.347583 -53.493646  -1.244719 -26.258752 -54.002411  -1.259354 -25.925669 -51.340191  -1.193373 -26.646782 -52.399520  -1.220896 -24.965095 -49.973588  -1.163958 -26.011505 -51.856145  -1.209675 -24.676894 -58.540419  -1.394805 -16.125205 -56.139871  -1.317364 -21.758053 -57.400206  -1.352738 -19.606905 -57.766259  -1.359178 -20.958088 -55.651887  -1.303120 -24.400524 -58.154067  -1.366075 -23.182125 -56.411455  -1.321431 -23.407929 -57.167954  -1.344875 -23.490142 -57.705539  -1.359609 -21.570895 -57.043406  -1.340179 -22.046837 -56.846809  -1.341403 -22.284041 -57.286426  -1.357406 -17.081230 -56.632626  -1.338280 -18.005246 -57.862262  -1.372212 -18.213503 -58.686531  -1.394570 -17.661885 -58.085432  -1.382091 -17.692758 -58.039217  -1.379350 -16.337101 -56.891879  -1.345675 -20.188857 -58.442893  -1.385840 -19.792376 -56.582144  -1.335610 -20.057411 -56.019138  -1.328277 -18.390117 -53.172868  -1.249858 -28.732099 -53.473282  -1.262606 -26.574358 -53.834948  -1.275912 -25.273237 -52.720916  -1.249476 -25.020578 -52.178472  -1.233597 -26.360927 -51.606931  -1.220354 -24.724179 -49.874260  -1.173221 -26.551567 -50.462715  -1.188071 -27.065049 -51.069247  -1.202478 -27.437566 -48.458891  -1.135007 -28.022246 -54.998087  -1.288063 -25.490453 -55.268359  -1.299852 -23.449283 -55.311554  -1.305143 -23.651953 -54.983985  -1.305008 -23.553003 -55.556532  -1.315189 -23.680474 -56.211424  -1.331030 -22.260663 -55.517119  -1.318096 -22.041356 -54.251542  -1.269174 -22.963972 -54.693764  -1.279193 -23.682909 -53.289877  -1.248009 -22.416361 -55.385712  -1.305339 -19.180075 -54.102930  -1.271365 -20.494716 -52.069012  -1.211820 -25.954959 -53.428512  -1.248718 -24.859571 -54.497341  -1.280771 -26.315162 -54.785052  -1.287765 -24.992765 -52.933628  -1.234733 -27.346590 -51.365597  -1.194544 -29.037149 -53.282734  -1.247792 -25.797734 -53.275554  -1.247284 -27.228400 -53.786210  -1.270087 -24.379983 -53.469449  -1.267490 -23.984081 -48.524247  -1.127814 -27.675420 -51.346620  -1.196206 -26.835767 -52.605559  -1.236991 -26.903309 -51.732784  -1.206733 -29.149466 -51.396958  -1.202231 -29.460672 -50.126552  -1.175253 -28.372272 -49.755560  -1.160010 -28.807260 -48.422656  -1.126013 -29.739893 -49.419679  -1.149044 -28.711409 -49.573670  -1.150671 -28.378827 -46.891675  -1.088368 -29.499186 -47.437326  -1.101011 -28.841386 -48.892017  -1.140730 -28.926233 -47.421606  -1.105074 -29.072257 -46.892077  -1.089593 -29.569981 -57.276965  -1.357565 -20.749198 -57.767410  -1.373051 -21.335297 -57.260957  -1.362295 -19.409956 -55.702886  -1.317414 -21.300217 -56.936717  -1.352451 -19.004869 -54.489532  -1.289397 -20.563614 -57.230558  -1.362418 -17.636776 -58.005559  -1.384464 -16.463703 -55.853529  -1.328454 -19.759662 -57.316081  -1.368991 -17.309358 -56.648888  -1.354027 -18.332889 -55.429603  -1.322174 -19.134111 -54.308947  -1.290936 -23.703152 -55.445267  -1.320649 -22.546800 -53.625814  -1.275407 -22.567170 -54.650935  -1.303049 -20.583585 -54.370855  -1.292501 -21.696063 -52.560973  -1.247632 -23.765161 -51.720805  -1.226359 -23.459598 -50.143726  -1.166123 -26.298259 -49.362285  -1.150172 -25.826217 -52.085668  -1.216179 -23.774369 -50.085565  -1.167421 -24.527917 -51.437522  -1.201929 -23.620330 -55.990280  -1.332895 -16.579548 -56.566178  -1.346687 -16.246415 -55.163901  -1.297084 -21.152201 -54.918813  -1.288629 -23.005176 -55.868504  -1.315216 -21.725662 -55.407529  -1.309375 -20.113102 -54.565185  -1.287418 -21.358202 -54.979876  -1.303896 -17.834260 -56.313343  -1.337359 -17.912229 -55.488415  -1.314906 -19.343865 -54.235315  -1.283943 -19.080701 -54.523379  -1.296151 -17.808348 -50.899054  -1.199045 -26.503397 -52.119090  -1.232364 -25.295368 -51.186615  -1.211123 -25.010331 -50.484268  -1.192327 -24.816746 -49.375084  -1.162510 -26.118455 -48.456293  -1.137435 -26.794558 -51.759310  -1.227563 -23.345399 -53.295562  -1.261262 -19.546742 -53.407778  -1.256264 -23.381545 -53.025864  -1.253040 -20.629777 -54.013400  -1.275790 -22.353575 -53.364765  -1.264061 -22.562876 -54.965092  -1.302066 -21.274888 -53.960152  -1.280504 -20.688900 -52.606980  -1.234697 -21.683888 -52.352348  -1.227718 -21.502674 -53.284762  -1.257698 -19.511820 -52.251915  -1.226063 -22.626259 -50.977159  -1.188396 -25.110274 -51.600054  -1.207686 -24.596830 -51.389808  -1.207909 -22.956930 -52.006501  -1.220782 -25.355125 -51.459740  -1.202991 -27.234468 -49.148511  -1.152628 -27.133470 -51.734252  -1.220301 -23.189237 -51.686489  -1.220801 -24.221563 -50.488412  -1.187286 -25.380790 -49.353344  -1.148140 -26.309539 -48.449004  -1.127666 -26.601394 -49.806965  -1.162561 -26.623673 -49.875081  -1.167252 -27.533497 -47.473412  -1.105521 -28.005867 -47.722222  -1.110680 -27.455997 -47.702988  -1.114402 -27.540069 -55.717406  -1.322898 -18.295116 -55.243704  -1.310399 -19.800694 -53.413003  -1.265364 -19.926598 -53.989248  -1.280278 -18.471158 -54.777001  -1.301264 -16.969288 -55.907093  -1.329195 -16.725874 -54.116159  -1.283885 -19.162809 -54.987400  -1.307750 -18.019931 -53.482369  -1.271503 -19.582001 -52.593728  -1.250719 -21.622059 -51.775709  -1.229180 -21.073779 -50.657622  -1.203253 -22.665251 -49.516902  -1.156121 -24.119815 -48.993029  -1.139939 -24.195455 -50.333427  -1.176254 -22.904973 -50.417654  -1.177108 -22.551589 -53.700707  -1.286228 -16.236649 -54.428178  -1.299372 -15.470626 -54.463888  -1.291486 -15.565687 -52.866754  -1.245421 -20.846198 -51.845855  -1.221210 -21.061555 -52.448310  -1.247997 -17.837552 -52.560776  -1.246194 -19.635869 -53.512756  -1.271272 -17.693362 -51.560306  -1.221315 -19.104761 -53.237879  -1.265940 -15.935153 -52.372354  -1.244370 -17.968613 -52.501170  -1.251116 -16.707244 -50.065207  -1.182962 -24.940643 -49.071817  -1.162524 -24.443345 -50.767887  -1.202096 -22.816010 -47.835670  -1.128834 -25.480350 -50.300001  -1.194960 -22.069018 -51.739121  -1.225460 -18.897616 -51.675054  -1.220478 -21.057684 -52.022635  -1.231126 -21.405681 -50.142937  -1.176138 -21.107983 -50.679859  -1.191398 -19.735173 -50.093833  -1.181990 -20.240799 -49.900426  -1.177078 -22.232989 -50.444775  -1.182479 -22.616029