<?xml version="1.0"?>
<VTKFile type="UnstructuredGrid" version="0.1" byte_order="LittleEndian">
    <UnstructuredGrid>
        <Piece NumberOfPoints="3192" NumberOfCells="14977">
            <Points>
                <DataArray type="Float32" NumberOfComponents="3" format="ascii">
                    -30.410343 -14.586613 101.278355 -33.383723 -14.128708  99.346357 -31.252817 -12.273085 100.931091 -27.669498  -9.023398 101.450523 -34.694896 -15.969320  97.268627 -33.296037 -13.254591  97.037307 -34.643788 -11.037058  97.681992 -32.816539 -10.702019  99.561710 -30.234404  -9.574529 100.844204 -31.762632  -7.980992  99.140986 -34.782516  -8.558981  95.977528 -33.567137  -8.822689  97.978407 -28.128326 -12.097707 102.098561 -26.091619 -17.751431 101.347681 -26.916834 -15.166362 102.131770 -33.151224 -17.526861  98.316391 -28.286972 -17.441421 101.184962 -31.219886 -17.109181 100.099728 -31.633898 -14.751326  98.486949 -28.218455 -13.575894 100.224813 -29.450074 -13.930084  99.033034 -28.148423 -15.930451  99.767124 -24.266042 -16.453037 101.747056 -26.968072 -19.444047 100.298442 -29.221238 -19.398244  99.741021 -31.375740 -19.116877  98.742742 -32.467013 -19.902517  96.946007 -31.459727 -18.446662  96.845448 -27.393095 -17.777415  98.942160 -30.236864 -20.905397  97.773106 -26.597425 -11.398454 100.052337 -25.327099 -10.161651 101.987090 -23.590084  -8.748273 101.266889 -32.929937  -6.770871  96.988594 -29.109375  -7.139467 100.061072 -30.744652  -5.670597  97.906882 -24.622684 -13.307762 102.321670 -22.639390 -11.614274 101.826779 -33.227829 -10.149186  96.342886 -32.389349 -11.681071  96.705830 -34.397551 -18.262342  96.006764 -31.859483 -16.254192  96.996175 -35.161255 -18.698319  93.205750 -35.588598 -13.252442  96.519105 -31.864995 -14.385420  96.235605 -27.866299  -5.329855  98.959873 -26.206375  -8.934478  99.807289 -26.051451  -7.245062 100.727527 -29.337308 -11.326090  99.018241 -30.940293 -12.646924  98.286820 -30.457863  -7.860595  97.710013 -28.225091  -9.260457  98.370335 -31.672069  -4.666351  95.511038 -33.872753  -6.337242  94.813568 -35.437596  -8.097621  93.591128 -35.950797 -10.395341  94.869395 -36.353652  -9.979996  92.693638 -36.708045 -12.609051  93.228785 -36.184853 -15.920060  93.946074 -33.488022 -15.706586  94.885914 -33.913961 -17.233523  93.153314 -35.041048 -14.742702  93.034729 -33.000442  -8.182328  94.268447 -33.694965 -12.326200  95.033182 -33.792434 -10.241947  94.131823 -31.123167 -10.196100  97.558197 -31.599139  -8.744101  96.222473 -21.912088 -14.823672 101.535295 -27.609820 -12.151195  98.454676 -25.191967 -13.878834 100.309975 -25.897716 -11.231369  98.305356 -25.226349 -18.728348  98.751066 -24.348159 -19.007773 100.551498 -22.541773 -17.772208 100.799450 -24.044328 -15.868985  99.334332 -26.164829 -15.652783  99.693471 -29.716473 -17.393935  98.114582 -29.607033 -15.640155  97.758303 -29.948876 -14.158535  96.662367 -28.402007 -13.235190  96.979276 -26.397542 -13.772297  98.190779 -27.304763 -15.885181  97.670167 -31.652049 -18.473121  94.944890 -33.475981 -20.526874  94.202963 -27.863730 -21.229224  98.520216 -24.845335 -21.144963  98.840349 -22.090781 -16.034589  99.675853 -20.385578 -17.245554 100.033759 -32.217395 -22.009182  92.662325 -31.040128 -21.893548  95.500418 -28.548593 -22.642608  96.175943 -26.836220 -19.387571  98.029024 -28.729751 -18.615088  97.138513 -29.825975 -19.799623  95.662383 -30.056448 -17.231563  95.744935 -25.659713 -17.547205  97.201474 -27.561918 -20.628541  96.068290 -25.903780 -20.281279  96.581571 -21.827926 -19.891103  99.092144 -24.077346 -19.924680  97.246767 -21.191587  -8.953500 100.507894 -23.926535 -11.181426  99.602088 -22.085551 -10.379957  99.810454 -24.746059  -9.978543  99.199083 -26.417548  -6.833000  98.577317 -25.426301  -5.141109  99.038005 -23.017904  -6.312644  99.638441 -23.360364  -8.721689  99.366001 -30.773688  -6.672517  96.118681 -28.607649  -6.865199  97.369562 -28.982551  -3.717086  96.324857 -26.209707  -3.672246  97.166241 -24.007346  -4.392388  97.965409 -19.555073 -14.653792 100.329539 -20.276505 -12.138439 100.871725 -22.959605 -13.373739  99.305143 -20.481419 -12.858710  98.830831 -18.044228 -15.807943  98.750608 -36.032690 -17.327732  91.034680 -34.361047 -20.114793  91.218417 -32.470387 -21.863246  90.225881 -35.219774 -18.409115  88.915403 -31.958259 -10.817070  94.873605 -30.922698 -12.450963  95.917421 -32.201417 -17.693474  93.333113 -31.411991 -15.914967  94.282469 -30.386382 -15.075987  95.218612 -32.571494 -18.916449  91.516409 -34.162934 -13.561672  93.243753 -32.429919 -13.323384  93.438805 -26.052767  -6.029624  96.465580 -25.275323  -8.344859  98.176386 -29.783373  -2.980080  93.583674 -24.443717  -9.991682  97.218893 -27.635694 -10.555348  96.625594 -29.324979 -11.016641  96.236792 -29.091756  -8.311358  96.548099 -27.262745  -8.039499  96.666788 -30.506181  -8.156301  94.498432 -30.632082  -5.930047  94.133119 -31.970657  -7.115611  92.684932 -32.441697  -4.316782  92.755764 -33.186262  -8.324724  91.456794 -35.853520  -8.414166  90.990615 -34.343349  -6.022364  91.729011 -34.266561  -9.826075  91.616112 -34.286243 -11.828234  92.651617 -36.693119 -11.083938  90.793891 -35.156415 -12.994816  92.016266 -36.808163 -14.234874  90.710946 -36.389510 -12.279149  88.118210 -32.503328 -15.401584  92.572005 -32.631518 -16.516794  91.405497 -34.138168 -15.264255  91.550107 -31.495296  -9.456555  93.180469 -32.429908 -11.175873  92.505801 -29.900800 -10.025443  94.646264 -21.566794 -14.710790  98.516492 -26.076591 -12.175680  96.564062 -24.431013 -13.121883  97.554433 -22.727825 -17.143097  98.186758 -23.538523 -15.212342  96.918774 -24.138351 -17.555632  95.970810 -27.824489 -12.132582  94.567126 -25.548798 -15.006309  96.429544 -28.133552 -16.272202  96.064325 -25.855271 -17.278743  95.501300 -30.717362 -18.847044  91.756138 -30.189911 -17.684905  93.929336 -29.364375 -13.753917  94.794205 -28.879257 -16.370264  93.906136 -27.330985 -14.287392  95.375974 -30.780518 -20.206497  93.354574 -25.684014 -22.751463  96.708412 -22.897111 -22.189229  96.909771 -29.340415 -23.365394  93.410286 -30.330259 -23.176282  90.706039 -26.458457 -23.807870  94.002184 -20.507904 -16.484273  97.818824 -19.026513 -18.763071  97.997840 -20.172126 -21.127496  96.454993 -31.366101 -22.287895  88.638288 -30.716409 -20.783367  90.937747 -28.222816 -20.793922  93.743829 -27.209598 -18.621934  95.548412 -28.696622 -18.218558  94.404636 -25.595887 -19.411070  95.162449 -23.741168 -21.210956  95.061410 -25.759926 -21.120183  94.194420 -25.365573 -18.208802  94.287393 -21.960739 -19.030764  96.109929 -23.737581 -18.658236  94.567939 -36.245416 -15.533075  88.520364 -18.777482  -9.966168  99.309296 -21.206204  -8.448526  98.196474 -20.005010  -7.087504  98.627954 -30.446662  -3.014375  90.805544 -22.077135 -10.349788  98.057653 -23.276458 -11.609868  96.123007 -23.136553  -6.901478  97.464692 -21.424129  -4.743653  97.181483 -24.073337  -6.617705  95.597176 -22.496732  -8.947481  95.925258 -27.740105  -7.034339  94.795524 -25.451071  -6.791937  94.249812 -27.841606  -5.073726  93.886862 -26.977066  -2.477098  94.359037 -27.746859  -2.155077  91.617641 -23.768999  -2.932924  95.319709 -25.922001  -4.627987  93.221192 -24.024312  -4.355960  94.389491 -20.572679  -6.993962  95.857180 -19.223722  -5.516038  96.087631 -20.924613  -3.646972  94.564855 -19.856232 -14.112585  97.922396 -18.079592 -13.008711  99.270250 -16.799904 -11.262939  97.546143 -21.945848 -13.364934  97.002312 -19.928054 -11.726324  97.131378 -19.063007 -16.999626  96.445710 -18.254531 -15.294744  96.705809 -16.542134 -14.262107  97.314769 -18.008854 -19.774217  95.503933 -16.900415 -17.086173  96.590806 -33.793682 -15.518456  89.240623 -30.243308 -17.965274  90.082079 -33.019891 -17.431887  89.037767 -31.814148 -19.537435  89.376666 -33.383210 -20.439191  87.956359 -34.669175 -17.724061  86.539768 -30.822535 -21.511384  86.136427 -30.329799 -12.051220  93.529630 -30.526698 -16.164076  91.986317 -30.285566 -14.374323  92.333346 -31.573826 -16.641890  89.294794 -33.419637 -13.827714  90.573330 -31.861082 -12.900290  91.423708 -24.247834  -9.422336  94.528091 -25.926470  -8.941106  95.339996 -28.970574  -4.899131  92.079477 -25.904640 -12.958305  93.736704 -25.775143 -10.828159  94.682395 -36.061281  -9.502815  89.098463 -33.699505  -9.293543  89.791131 -27.956610  -9.077705  94.047682 -29.546066  -7.793581  92.439758 -31.277152  -6.339621  91.480656 -31.242741  -8.275104  91.688534 -31.685765 -10.124347  90.663751 -32.723594  -4.513797  89.972941 -31.989261  -7.816816  89.800070 -34.654080  -6.974165  88.590515 -31.810280  -6.384304  89.114210 -30.104968  -6.060983  90.302483 -34.200068 -11.561338  89.893917 -35.348011  -9.553087  86.896014 -34.573381 -13.571765  88.349661 -34.105208 -11.693972  87.217360 -35.520024 -14.546925  86.171860 -35.369367 -11.981490  85.803737 -34.066062 -10.452388  84.379887 -32.059387 -14.795336  90.073603 -30.115091 -10.945756  92.289120 -27.868178 -11.083122  93.071561 -19.893730 -14.663297  96.183659 -20.819511 -16.417310  95.529060 -21.699727 -15.062844  96.561800 -24.584593 -15.852202  94.354874 -24.103048 -12.325563  94.607256 -23.498907 -14.426144  95.004828 -22.675761 -16.042189  95.141524 -21.528873 -13.363447  94.534462 -28.280203 -13.142255  92.694084 -26.739963 -16.774390  94.219928 -28.877679 -19.004822  91.548789 -28.291210 -17.257007  92.427339 -28.062813 -15.294259  92.064265 -25.778188 -14.738071  92.515365 -28.365845 -21.249138  91.633600 -29.416621 -21.605367  89.936195 -26.163750 -21.907855  92.435316 -21.437553 -22.625762  94.883264 -23.770496 -23.525104  94.411536 -28.595483 -23.311541  88.066085 -27.370023 -24.052192  91.158652 -24.566051 -24.091678  91.727410 -20.037639 -18.366909  95.617262 -23.036423 -21.814628  93.075236 -21.954404 -19.801794  93.746758 -19.969373 -19.893305  94.417836 -19.388225 -21.820534  93.679422 -30.274562 -20.477661  88.416270 -28.623949 -19.945153  89.959330 -26.722565 -18.995752  92.9436
[...]
            <PointData>
                <DataArray type="Float32" Name="U0" NumberOfComponents="3" format="ascii">
                    -66.609213 -43.811246 -36.265073 -64.798726 -43.172060 -38.894570 -66.557254 -43.733776 -35.881482 -67.449085 -43.567694 -30.737402 -62.562757 -42.254199 -41.114999 -62.668930 -41.961973 -38.354414 -63.561322 -42.458082 -38.506718 -65.422427 -43.212325 -36.566412 -66.799812 -43.565131 -33.487826 -65.343449 -42.864071 -34.129300 -62.209322 -41.587519 -37.351805 -64.116420 -42.479220 -36.313093 -67.704730 -43.960326 -32.838696 -66.295300 -43.323693 -33.721368 -67.368531 -43.823195 -33.260985 -63.387451 -42.610040 -40.426610 -66.176788 -43.505915 -35.684598 -65.164789 -43.299399 -38.342921 -63.892805 -42.515183 -37.526838 -65.717789 -43.001128 -33.660879 -64.523369 -42.534391 -35.006809 -64.989468 -42.762681 -34.786383 -66.841757 -43.305453 -31.279312 -65.073514 -42.888679 -35.430394 -64.540470 -42.873985 -37.590088 -63.608051 -42.618135 -39.530515 -61.771112 -41.820241 -40.993716 -61.850563 -41.646278 -39.264483 -63.961254 -42.242957 -34.988774 -62.449850 -41.979392 -39.350401 -65.810836 -42.710822 -30.967120 -67.832917 -43.565274 -29.124232 -67.301963 -42.976566 -26.635892 -63.404994 -41.885435 -34.627333 -66.334952 -43.019852 -31.123730 -64.426357 -42.096827 -31.936825 -67.781152 -43.644611 -30.082558 -67.504263 -43.152379 -27.268140 -62.371760 -41.589164 -36.673632 -62.538444 -41.677384 -36.660497 -61.060525 -41.565507 -42.014208 -62.264148 -41.771316 -38.518527 -58.290243 -40.204831 -42.980024 -62.166562 -41.970933 -40.571816 -61.753992 -41.374760 -37.555739 -65.485648 -42.293604 -28.971451 -65.869846 -42.529837 -29.275216 -66.967493 -42.995146 -28.220614 -64.824210 -42.503803 -33.547006 -63.954896 -42.324284 -35.769393 -63.971777 -41.959239 -32.802759 -64.442742 -42.029302 -31.384252 -62.225064 -40.963655 -32.310842 -61.348476 -40.870605 -35.313881 -59.950377 -40.427668 -37.745716 -60.912504 -41.155877 -39.437835 -58.852056 -40.075210 -39.611115 -59.052645 -40.398592 -41.320545 -59.346637 -40.710599 -42.532115 -60.284541 -40.872101 -39.808215 -58.417549 -40.025991 -41.010157 -58.605584 -40.097911 -40.811123 -60.596569 -40.482174 -35.426965 -60.838109 -40.968856 -38.254945 -60.215622 -40.509982 -37.265407 -63.544773 -41.962754 -34.667006 -62.423804 -41.326025 -34.365767 -66.832496 -42.912753 -28.146021 -64.172821 -42.006302 -32.312248 -65.753812 -42.679647 -30.896612 -64.133086 -41.717600 -30.175464 -63.655766 -41.880983 -33.369752 -65.370395 -42.701557 -32.660745 -65.760691 -42.608816 -30.267557 -64.562980 -42.040589 -30.764564 -64.942369 -42.485324 -32.728785 -63.208890 -42.094492 -37.037231 -63.077648 -41.895081 -36.030126 -62.194892 -41.364435 -35.589663 -62.611939 -41.339972 -33.621195 -63.715393 -41.729366 -31.977482 -62.957021 -41.572726 -33.931351 -60.003614 -40.683924 -39.461785 -59.034879 -40.519785 -42.293617 -63.132924 -42.079116 -37.216072 -63.450840 -41.879707 -34.242289 -64.875698 -41.976994 -28.937547 -65.078396 -41.954247 -27.894930 -57.358724 -39.568852 -41.839831 -60.125675 -40.899243 -40.639488 -60.687783 -40.948190 -38.609546 -62.878068 -41.702201 -35.271003 -62.111416 -41.469886 -36.707521 -60.536423 -40.836559 -38.378587 -60.929763 -40.906161 -37.275841 -62.294987 -41.132596 -33.183313 -60.826368 -40.773760 -36.610810 -61.363872 -40.839666 -34.822688 -63.844452 -41.643319 -30.662495 -62.049847 -40.962800 -32.865599 -66.539324 -42.294544 -24.392474 -65.391221 -42.151246 -28.254024 -65.685856 -42.034482 -26.029412 -65.147288 -42.037145 -28.408602 -64.930211 -41.916596 -28.356452 -65.580876 -42.038092 -26.505585 -66.018434 -42.060328 -24.781524 -65.459305 -41.956759 -26.389515 -62.571810 -41.170232 -32.485763 -63.759018 -41.555784 -30.490259 -63.126229 -41.058844 -29.208149 -63.943838 -41.158322 -26.496332 -64.628854 -41.307859 -24.734385 -65.678014 -42.005277 -25.751073 -66.505262 -42.371368 -25.167058 -64.831640 -41.891850 -28.433776 -64.431914 -41.342412 -25.731236 -64.001593 -41.007357 -24.870738 -56.350429 -39.182233 -43.113036 -56.188964 -39.077595 -42.937366 -55.011635 -38.334616 -42.008038 -54.161225 -37.984185 -42.883854 -60.865183 -40.672476 -35.788964 -61.679737 -41.091433 -35.640228 -58.535405 -39.913109 -39.588014 -59.672592 -40.308826 -37.903850 -60.682345 -40.669275 -36.480292 -56.623426 -39.015579 -40.578425 -58.951803 -40.098605 -39.346992 -59.169714 -39.989424 -37.543419 -62.977985 -40.774405 -27.574010 -64.354973 -41.568126 -28.045956 -60.556429 -39.732114 -29.598386 -63.222366 -40.972898 -28.099181 -62.590640 -41.054503 -31.482662 -62.161501 -41.060105 -33.353383 -62.789246 -41.188592 -31.715017 -62.932817 -41.027089 -29.801831 -60.820731 -40.297400 -32.996731 -60.734609 -40.121430 -31.957897 -59.188082 -39.533646 -33.870441 -59.594602 -39.626259 -32.873030 -57.851232 -39.045585 -35.676529 -57.388436 -39.128628 -38.311591 -58.393675 -39.325815 -35.604194 -57.824842 -39.261545 -37.505183 -58.587379 -39.803730 -38.565880 -56.874762 -39.130948 -40.512521 -57.829539 -39.581195 -40.014620 -56.412142 -39.105038 -42.260499 -54.132416 -37.706478 -40.836493 -58.075778 -39.551447 -38.690975 -56.808211 -38.962882 -39.391276 -57.101402 -39.218708 -40.203837 -59.386362 -39.735697 -34.628005 -58.524366 -39.501910 -36.425983 -60.737869 -40.302559 -33.385066 -63.903922 -41.314301 -27.744934 -62.327969 -40.839289 -30.818236 -63.167240 -41.158764 -29.722126 -63.293954 -41.286544 -30.125584 -62.296409 -40.725464 -29.919201 -61.095531 -40.308386 -31.702185 -60.401498 -40.014704 -32.469572 -61.852298 -40.714821 -31.766389 -61.353282 -40.839220 -34.922010 -60.678112 -40.272613 -33.226087 -56.863117 -38.916361 -38.742600 -59.112717 -39.980217 -37.634322 -60.429530 -40.323057 -34.804320 -59.248491 -39.808367 -35.683300 -60.924049 -40.380922 -33.114858 -58.248806 -39.754426 -39.511337 -61.188542 -40.877613 -35.885477 -61.448764 -40.644058 -32.888039 -57.917044 -39.610001 -39.750799 -55.316697 -38.325580 -40.611574 -58.434755 -39.568490 -37.181846 -63.013330 -40.824837 -27.620635 -62.914348 -40.738173 -27.354779 -61.132606 -40.078526 -29.690433 -53.418401 -37.376748 -41.155114 -55.833031 -38.492182 -39.745195 -58.551749 -39.648129 -37.333973 -60.564854 -40.461912 -35.232619 -59.506774 -40.047377 -36.463081 -60.090985 -40.066448 -34.071875 -59.772921 -39.788833 -33.200178 -58.945475 -39.584036 -35.112587 -59.386722 -39.583729 -33.224531 -61.049857 -40.116755 -30.345064 -59.600625 -39.532186 -31.876032 -54.127820 -37.900793 -42.386548 -65.248724 -41.378760 -22.558899 -64.352179 -41.089380 -24.135999 -64.937975 -41.169508 -22.252733 -57.857192 -38.370443 -30.257212 -63.985253 -41.125750 -25.988863 -61.957548 -40.270203 -27.795736 -63.834869 -40.941242 -25.202145 -63.820255 -40.587727 -22.407186 -62.058197 -40.083531 -25.956857 -62.087329 -40.066405 -25.645478 -61.239383 -40.113239 -29.730730 -60.733085 -39.551934 -27.379661 -60.594759 -39.652913 -28.804183 -61.365696 -39.793528 -26.614476 -58.745462 -38.463131 -27.190283 -62.237528 -39.903280 -23.737718 -59.998771 -39.074075 -26.706566 -61.161513 -39.450616 -24.725247 -62.256944 -39.797845 -22.750524 -62.660387 -39.754245 -20.668345 -61.413146 -39.167331 -21.345014 -63.397410 -40.796902 -25.763038 -64.842132 -41.279152 -23.458884 -63.376137 -40.227529 -21.301515 -62.594658 -40.570997 -27.414973 -62.915480 -40.389876 -24.594321 -61.616179 -39.937729 -26.477333 -62.072577 -39.972868 -24.808594 -62.789083 -40.080601 -22.607341 -60.369233 -39.323475 -26.886588 -61.746549 -39.750995 -24.417359 -54.829001 -37.978335 -39.998189 -55.345726 -37.989194 -37.821256 -54.398936 -37.781312 -40.240065 -54.470780 -37.813259 -40.162633 -52.982539 -37.265461 -42.154077 -51.938140 -36.683476 -41.992027 -51.083515 -36.010369 -40.222154 -59.409910 -39.779760 -34.848550 -57.413144 -39.010037 -37.166949 -57.967113 -39.158142 -36.006454 -54.744169 -37.739304 -38.424949 -56.327940 -38.622879 -38.759110 -57.265037 -38.874015 -36.766426 -60.679172 -39.554481 -27.587520 -61.532125 -40.177567 -28.971279 -58.864108 -38.852422 -29.804946 -59.488673 -39.353580 -31.029287 -60.664099 -39.822508 -29.804493 -55.420318 -38.172655 -39.077170 -56.117680 -38.244661 -36.675379 -60.267187 -39.754012 -31.003484 -58.865269 -39.111336 -31.869865 -58.112302 -38.823367 -32.791633 -58.080704 -38.929122 -33.764454 -56.863336 -38.453729 -35.152773 -56.870055 -38.216255 -33.246370 -56.303883 -38.039417 -34.247202 -55.232281 -37.735537 -36.397210 -55.810647 -37.660498 -33.328786 -57.001214 -38.069018 -31.506004 -55.943377 -38.361743 -38.339156 -53.275599 -36.942982 -38.408818 -54.200554 -37.607762 -39.743676 -53.328960 -36.960858 -38.312524 -51.967180 -36.592662 -41.168266 -51.920672 -36.380766 -39.689830 -50.722694 -35.481810 -37.627759 -55.724995 -38.200114 -37.939497 -58.339571 -39.107769 -34.060245 -59.077108 -39.240938 -31.955654 -61.641413 -39.899967 -26.078222 -60.796467 -39.674465 -27.883563 -61.963532 -40.316056 -28.047322 -59.733379 -39.521405 -31.249819 -60.403090 -39.585413 -28.958466 -60.531908 -39.724616 -29.461837 -60.468575 -39.698755 -29.495895 -60.197903 -39.239066 -26.991428 -58.462627 -39.099934 -33.422758 -59.498292 -39.713752 -33.817870 -56.640446 -38.586872 -37.037933 -57.704276 -38.970604 -35.565138 -57.589567 -38.751294 -34.324302 -58.087320 -38.708233 -31.819859 -56.449180 -38.569872 -37.704824 -54.759809 -37.815362 -38.908176 -57.143833 -38.720098 -35.909552 -59.427159 -39.417601 -31.694505 -58.863125 -39.455288 -34.426084 -52.736251 -36.744738 -38.995272 -55.646663 -38.203017 -38.192191 -56.190746 -38.158935 -35.489960 -60.648705 -39.627356 -28.131013 -57.771354 -38.673058 -32.825019 -58.662782 -38.889725 -30.732470 -59.300854 -38.997595 -28.852728 -58.352725 -38.545188 -29.286042 -53.422846 -37.129015 -39.153964 -54.983447 -37.731196 -37.275703 -57.990775 -39.050860 -34.944542 -58.139453 -38.944145 -33.427719 -58.051635 -38.736342 -32.148585 -58.709542 -38.751448 -29.421097 -57.317905 -38.293040 -31.717992 -55.737847 -37.896629 -35.344556 -54.013017 -37.269075 -37.829680 -52.475566 -36.653681 -39.466067 -49.936151 -35.412666 -40.396510 -62.623180 -40.133925 -23.831139 -63.452399 -40.183683 -20.668962 -61.118153 -38.777995 -19.420562 -56.525230 -37.530285 -29.226699 -55.489941 -37.205459 -31.059282 -55.874394 -37.009601 -27.838284 -61.027639 -39.555241 -26.019980 -61.134551 -39.382992 -24.259245 -59.997183 -39.003764 -26.121279 -60.800558 -38.850031 -21.353331 -60.273578 -38.886855 -23.918715 -60.291985 -39.151730 -26.016381 -59.389118 -38.741133 -26.546299 -59.051928 -38.801099 -28.574141 -59.471404 -38.977403 -28.167940 -57.553073 -37.861157 -27.466628 -59.503464 -38.519598 -24.379655 -57.254256 -37.423680 -25.238598 -59.721861 -38.384688 -22.342518 -58.077946 -37.939527 -25.812963 -58.693827 -38.062685 -24.170309 -59.602932 -38.405031 -22.987980 -60.147711 -38.590839 -22.104239 -60.247219 -38.351612 -19.780263 -58.778043 -37.703927 -20.919087 -61.734730 -39.608363 -23.345811 -61.449498 -38.996045 -19.693539 -61.232280 -39.006956 -20.667397 -60.937772 -39.071592 -22.475071 -60.675257 -39.231185 -24.878973 -60.482067 -39.066141 -24.412504 -57.462115 -37.754088 -26.746661 -59.734082 -38.849844 -25.802376 -60.143141 -39.030149 -25.512043 -58.779410 -38.469404 -26.849581 -60.490122 -38.801696 -22.174233 -59.137913 -38.351515 -24.342931 -50.233422 -35.271932 -37.936554 -52.308080 -36.333156 -37.541225 -55.985077 -38.061035 -35.657761 -54.491446 -37.386996 -36.642160 -54.170743 -37.075739 -35.549412 -53.531412 -37.009566 -37.784506 -53.110187 -36.730536 -37.322032 -52.728389 -36.790011 -39.443757 -51.012130 -35.752947 -38.506183 -51.885249 -36.308569 -39.183401 -50.419383 -35.732698 -40.868291 -49.160448 -34.802872 -38.800996 -58.438356 -38.622726 -29.625737 -56.448682 -38.212104 -34.951294 -56.013975 -38.043018 -35.423874 -55.096267 -37.609364 -35.929387 -58.514742 -38.524742 -28.565674 -58.459352 -38.360651 -27.525774 -58.911088 -38.870116 -29.686009 -57.849682 -38.366874 -30.227620 -57.029813 -37.863997 -29.729544 -57.892518 -38.454178 -30.681936 -56.637260 -37.941991 -31.988200 -54.239981 -37.215922 -36.472991 -54.988558 -37.463578 -35.248924 -56.934854 -38.191331 -32.743667 -55.241642 -37.431225 -33.893495 -56.339901 -37.764621 -31.890770 -54.990471 -37.217151 -33.278324 -53.988438 -36.678622 -33.262973 -54.354291 -37.008323 -34.333859 -52.295078 -36.073248 -35.650983 -54.882174 -37.016860 -32.146207 -55.415962 -37.074608 -30.323377 -53.463964 -36.116707 -31.004143 -53.372505 -35.958655 -30.122483 -53.393448 -36.749524 -36.346306 -51.748083 -35.808467 -35.863718 -51.480168 -35.959171 -38.187936 -51.389848 -35.753970 -36.945947 -50.080653 -35.338944 -39.212443 -48.484824 -34.453302 -38.916695 -48.410602 -34.316970 -38.161023 -48.903647 -34.393529 -36.685284 -49.911272 -34.690396 -34.765053 -51.554144 -35.308801 -32.697402 -53.936981 -36.944563 -35.541143 -56.698946 -38.112311 -33.059495 -55.048469 -37.370237 -34.160889 -59.421448 -38.809253 -26.839909 -58.455851 -38.338229 -27.254870 -57.747059 -38.248751 -29.543111 -58.709912 -38.588904 -28.142612 -58.755642 -38.307152 -25.690396 -56.342931 -37.748005 -31.628403 -56.530141 -37.972786 -32.573544 -55.354065 -37.642382 -34.973841 -54.811450 -37.139451 -33.295967 -56.818159 -37.743448 -29.498254 -53.564441 -36.890708 -36.602297 -55.544344 -37.664352 -34.293757 -56.517565 -37.939120 -32.314448 -51.413507 -35.714887 -36.410812 -53.516041 -36.828951 -36.308114 -54.287915 -36.942161 -33.893973 -57.596735 -37.995382 -28.115247 -56.914475 -37.498640 -27.062446 -56.165637 -37.309677 -28.772958 -53.957204 -36.508949 -31.834512 -56.197346 -37.629480 -31.194905 -56.564401 -37.529627 -28.807224 -55.462243 -36.994335 -29.249332 -53.402988 -36.731871 -36.047751 -52.338843 -36.092686 -35.467462 -53.941449 -36.909941 -35.140767 -56.034650 -37.542751 -31.223929 -55.902546 -37.658480 -32.713374 -54.254741 -36.905175 -33.757909 -55.531862 -37.147684 -30.191209 -54.645151 -37.001975 -32.834671 -52.472558 -36.121553 -35.241134 -49.370210 -34.745773 -37.485305 -51.543972 -35.896637 -37.399887 -59.997714 -38.547222 -22.320018 -59.360515 -37.980074 -20.499624 -59.250779 -37.907342 -20.442762 -55.367997 -36.397909 -25.086126 -55.281043 -36.563498 -26.792647 -54.830478 -36.495737 -28.179358 -54.424012 -36.340957 -28.684875 -53.160234 -35.448938 -26.924076 -58.575017 -38.171336 -25.415448 -58.773694 -38.101071 -24.079821 -58.966645 -38.022044 -22.556455 -57.546934 -37.656038 -25.731937 -57.696258 -37.889777 -26.949111 -56.748568 -37.317210 -26.356639 -56.277058 -37.188546 -27.500579 -56.332953 -36.905631 -25.002574 -56.872940 -36.911796 -22.747947 -56.763126 -37.062852 -24.340554 -57.121812 -36.948279 -21.924961 -58.197216 -37.415348 -21.035074 -58.929685 -38.242650 -24.398566 -59.318792 -38.161802 -22.066261 -59.394402 -38.079119 -21.103302 -57.360695 -37.271816 -23.350767 -58.204226 -37.776708 -23.786059 -55.773159 -36.932113 -27.399860 -57.386433 -37.476519 -24.850686 -56.867298 -37.285082 -25.530814 -58.222756 -37.750196 -23.447460 -50.408881 -35.148373 -36.193810 -49.847603 -34.730131 -35.248696 -48.380346 -34.085078 -36.390276 -51.025661 -35.525326 -36.580953 -53.298341 -36.472385 -34.426659 -52.692408 -36.170284 -34.643683 -51.350020 -35.643420 -36.184045 -49.938537 -35.041426 -37.387782 -47.547198 -33.687451 -36.795356 -56.342689 -37.308977 -28.080508 -56.392266 -37.534440 -29.710404 -54.729182 -37.126710 -33.621224 -53.204112 -36.361305 -34.051119 -56.625481 -37.531746 -28.728365 -55.692458 -37.232714 -30.379156 -55.634493 -37.268506 -30.865043 -54.794883 -36.936863 -31.835040 -52.435525 -35.893182 -33.608775 -54.431021 -36.743534 -31.865969 -54.414281 -36.663591 -31.310964 -53.222827 -36.148330 -32.290500 -54.078522 -36.250707 -29.428982 -53.246826 -35.837942 -29.694136 -51.571479 -35.166258 -31.482291 -51.201390 -34.719459 -29.470591 -52.183015 -35.729007 -33.346894 -51.053794 -35.272898 -34.538921 -49.789638 -34.787595 -36.048659 -48.729922 -34.191329 -35.783154 -47.393677 -33.441016 -35.504408 -47.165390 -33.441797 -36.474167 -50.897762 -34.948473 -32.621710 -48.152390 -33.650710 -33.951596 -49.495217 -34.100733 -31.805308 -53.930188 -36.584218 -32.678815 -55.233675 -36.985523 -30.225855 -54.514559 -36.559119 -29.925265 -56.901854 -37.419037 -26.494321 -56.416149 -36.939243 -24.708123 -51.881622 -35.522308 -32.949675 -55.348301 -36.523244 -25.946613 -55.096686 -36.653343 -28.103780 -53.239442 -36.102525 -31.723401 -53.878099 -36.541429 -32.468305 -54.450942 -36.523798 -29.842664 -54.464193 -36.357792 -28.426362 -55.338003 -36.544100 -26.154967 -52.096928 -35.818353 -34.297698 -54.120373 -36.668110 -32.408732 -51.758000 -35.523842 -33.394801 -55.361470 -36.826293 -28.328542 -53.646091 -36.123422 -30.060476 -53.276791 -35.979539 -30.503484 -54.409268 -36.322371 -28.374096 -51.295752 -35.355652 -34.036619 -52.546470 -35.873049 -32.796277 -50.408218 -34.764824 -33.103348 -53.028032 -35.987180 -31.639767 -50.279734 -34.840732 -34.369033 -57.505427 -37.033064 -20.768793 -57.297749 -36.906890 -20.698062 -54.494185 -35.901405 -24.830623 -54.088471 -36.081547 -28.004983 -53.986995 -35.782675 -26.045936 -52.796148 -35.396037 -28.071984 -52.794260 -35.178970 -26.313828 -51.949132 -34.914456 -27.829433 -56.005298 -36.743417 -24.938637 -56.291164 -36.645460 -22.917724 -55.636884 -36.717433 -26.386818 -54.777094 -36.405884 -27.537650 -55.026040 -36.373548 -26.156096 -55.419869 -36.090637 -22.124027 -54.225879 -35.883765 -25.782688 -55.075337 -36.058451 -23.483162 -55.225150 -36.080525 -23.087187 -55.918236 -36.274314 -21.582998 -57.317286 -37.085756 -21.998609 -55.923509 -36.412266 -22.547242 -55.364230 -36.359769 -24.550567 -54.195184 -35.765898 -24.802086 -54.415418 -36.075829 -26.355873 -55.904945 -36.566932 -23.903792 -54.932213 -35.787518 -21.820762 -48.505072 -33.955363 -34.822753 -49.353732 -34.311774 -34.018405 -54.641915 -35.933398 -24.226326 -53.467947 -35.342919 -24.531119 -50.770751 -34.896257 -32.618923 -50.988670 -35.132662 -33.612381 -49.782618 -34.506281 -33.791533 -48.082144 -33.679292 -34.444893 -54.183337 -36.132836 -27.946225 -52.884741 -35.916771 -31.849333 -54.028628 -36.324697 -30.202161 -50.916587 -34.791580 -31.240860 -52.350423 -35.448170 -30.413048 -50.578748 -34.377521 -29.411758 -50.524704 -34.606470 -31.473205 -48.374100 -33.666870 -33.134128 -48.013306 -33.560054 -33.807478 -49.186838 -33.888494 -31.446493 -52.680406 -35.543095 -29.671416 -53.652586 -35.938648 -28.601731 -52.118280 -35.013840 -27.903459 -54.084066 -35.877010 -26.193055 -51.505711 -35.066953 -30.874940 -53.129612 -35.462954 -26.964476 -52.687251 -35.437157 -28.702428 -51.860350 -35.210393 -30.449965 -52.180864 -35.281771 -29.612249 -52.945736 -35.440991 -27.577754 -51.371354 -35.010117 -30.911904 -52.556681 -35.344763 -28.479301 -49.686276 -34.180158 -31.496819 -50.495697 -34.520751 -30.767328 -49.451709 -34.067168 -31.721908 -55.610730 -35.970502 -20.293500 -53.826798 -35.274286 -22.399194 -53.504400 -34.833656 -20.178322 -54.783636 -35.533763 -20.358339 -55.553548 -35.874151 -19.734554 -53.021573 -35.076443 -24.509618 -52.619315 -35.083187 -26.292388 -51.252901 -34.403470 -26.735063 -53.069145 -35.354206 -26.405975 -54.043650 -35.606295 -24.233274 -52.663588 -34.589628 -21.939459 -52.477743 -34.969024 -25.925465 -53.053675 -34.959490 -23.245874 -52.355371 -34.709002 -24.358740 -53.186165 -34.847479 -21.818787 -54.066598 -35.451223 -22.809696 -52.179837 -34.666917 -24.644581 -51.822063 -34.661106 -26.141242 -53.495462 -35.254813 -23.749035 -52.573532 -34.397955 -20.772500 -53.796785 -34.872639 -19.326831 -52.785093 -34.534408 -21.050191 -48.498643 -33.667868 -32.529233 -52.024868 -34.597053 -24.781442 -52.173648 -34.401311 -22.530334 -49.588461 -34.102273 -31.366815 -47.905232 -33.280294 -32.052024 -51.179159 -34.645283 -28.971537 -49.931645 -34.081858 -29.783754 -49.462178 -33.706472 -28.869635 -48.341116 -33.384616 -31.078868 -51.196378 -34.513275 -27.751977 -50.287916 -33.882636 -26.728457 -50.506217 -33.986143 -26.570590