<?xml version="1.0"?>
<VTKFile type="UnstructuredGrid" version="0.1" byte_order="LittleEndian">
    <UnstructuredGrid>
        <Piece NumberOfPoints="3192" NumberOfCells="14977">
            <Points>
                <DataArray type="Float32" NumberOfComponents="3" format="ascii">
                    -30.410343 -14.586613 101.278355 -33.383723 -14.128708  99.346357 -31.252817 -12.273085 100.931091 -27.669498  -9.023398 101.450523 -34.694896 -15.969320  97.268627 -33.296037 -13.254591  97.037307 -34.643788 -11.037058  97.681992 -32.816539 -10.702019  99.561710 -30.234404  -9.574529 100.844204 -31.762632  -7.980992  99.140986 -34.782516  -8.558981  95.977528 -33.567137  -8.822689  97.978407 -28.128326 -12.097707 102.098561 -26.091619 -17.751431 101.347681 -26.916834 -15.166362 102.131770 -33.151224 -17.526861  98.316391 -28.286972 -17.441421 101.184962 -31.219886 -17.109181 100.099728 -31.633898 -14.751326  98.486949 -28.218455 -13.575894 100.224813 -29.450074 -13.930084  99.033034 -28.148423 -15.930451  99.767124 -24.266042 -16.453037 101.747056 -26.968072 -19.444047 100.298442 -29.221238 -19.398244  99.741021 -31.375740 -19.116877  98.742742 -32.467013 -19.902517  96.946007 -31.459727 -18.446662  96.845448 -27.393095 -17.777415  98.942160 -30.236864 -20.905397  97.773106 -26.597425 -11.398454 100.052337 -25.327099 -10.161651 101.987090 -23.590084  -8.748273 101.266889 -32.929937  -6.770871  96.988594 -29.109375  -7.139467 100.061072 -30.744652  -5.670597  97.906882 -24.622684 -13.307762 102.321670 -22.639390 -11.614274 101.826779 -33.227829 -10.149186  96.342886 -32.389349 -11.681071  96.705830 -34.397551 -18.262342  96.006764 -31.859483 -16.254192  96.996175 -35.161255 -18.698319  93.205750 -35.588598 -13.252442  96.519105 -31.864995 -14.385420  96.235605 -27.866299  -5.329855  98.959873 -26.206375  -8.934478  99.807289 -26.051451  -7.245062 100.727527 -29.337308 -11.326090  99.018241 -30.940293 -12.646924  98.286820 -30.457863  -7.860595  97.710013 -28.225091  -9.260457  98.370335 -31.672069  -4.666351  95.511038 -33.872753  -6.337242  94.813568 -35.437596  -8.097621  93.591128 -35.950797 -10.395341  94.869395 -36.353652  -9.979996  92.693638 -36.708045 -12.609051  93.228785 -36.184853 -15.920060  93.946074 -33.488022 -15.706586  94.885914 -33.913961 -17.233523  93.153314 -35.041048 -14.742702  93.034729 -33.000442  -8.182328  94.268447 -33.694965 -12.326200  95.033182 -33.792434 -10.241947  94.131823 -31.123167 -10.196100  97.558197 -31.599139  -8.744101  96.222473 -21.912088 -14.823672 101.535295 -27.609820 -12.151195  98.454676 -25.191967 -13.878834 100.309975 -25.897716 -11.231369  98.305356 -25.226349 -18.728348  98.751066 -24.348159 -19.007773 100.551498 -22.541773 -17.772208 100.799450 -24.044328 -15.868985  99.334332 -26.164829 -15.652783  99.693471 -29.716473 -17.393935  98.114582 -29.607033 -15.640155  97.758303 -29.948876 -14.158535  96.662367 -28.402007 -13.235190  96.979276 -26.397542 -13.772297  98.190779 -27.304763 -15.885181  97.670167 -31.652049 -18.473121  94.944890 -33.475981 -20.526874  94.202963 -27.863730 -21.229224  98.520216 -24.845335 -21.144963  98.840349 -22.090781 -16.034589  99.675853 -20.385578 -17.245554 100.033759 -32.217395 -22.009182  92.662325 -31.040128 -21.893548  95.500418 -28.548593 -22.642608  96.175943 -26.836220 -19.387571  98.029024 -28.729751 -18.615088  97.138513 -29.825975 -19.799623  95.662383 -30.056448 -17.231563  95.744935 -25.659713 -17.547205  97.201474 -27.561918 -20.628541  96.068290 -25.903780 -20.281279  96.581571 -21.827926 -19.891103  99.092144 -24.077346 -19.924680  97.246767 -21.191587  -8.953500 100.507894 -23.926535 -11.181426  99.602088 -22.085551 -10.379957  99.810454 -24.746059  -9.978543  99.199083 -26.417548  -6.833000  98.577317 -25.426301  -5.141109  99.038005 -23.017904  -6.312644  99.638441 -23.360364  -8.721689  99.366001 -30.773688  -6.672517  96.118681 -28.607649  -6.865199  97.369562 -28.982551  -3.717086  96.324857 -26.209707  -3.672246  97.166241 -24.007346  -4.392388  97.965409 -19.555073 -14.653792 100.329539 -20.276505 -12.138439 100.871725 -22.959605 -13.373739  99.305143 -20.481419 -12.858710  98.830831 -18.044228 -15.807943  98.750608 -36.032690 -17.327732  91.034680 -34.361047 -20.114793  91.218417 -32.470387 -21.863246  90.225881 -35.219774 -18.409115  88.915403 -31.958259 -10.817070  94.873605 -30.922698 -12.450963  95.917421 -32.201417 -17.693474  93.333113 -31.411991 -15.914967  94.282469 -30.386382 -15.075987  95.218612 -32.571494 -18.916449  91.516409 -34.162934 -13.561672  93.243753 -32.429919 -13.323384  93.438805 -26.052767  -6.029624  96.465580 -25.275323  -8.344859  98.176386 -29.783373  -2.980080  93.583674 -24.443717  -9.991682  97.218893 -27.635694 -10.555348  96.625594 -29.324979 -11.016641  96.236792 -29.091756  -8.311358  96.548099 -27.262745  -8.039499  96.666788 -30.506181  -8.156301  94.498432 -30.632082  -5.930047  94.133119 -31.970657  -7.115611  92.684932 -32.441697  -4.316782  92.755764 -33.186262  -8.324724  91.456794 -35.853520  -8.414166  90.990615 -34.343349  -6.022364  91.729011 -34.266561  -9.826075  91.616112 -34.286243 -11.828234  92.651617 -36.693119 -11.083938  90.793891 -35.156415 -12.994816  92.016266 -36.808163 -14.234874  90.710946 -36.389510 -12.279149  88.118210 -32.503328 -15.401584  92.572005 -32.631518 -16.516794  91.405497 -34.138168 -15.264255  91.550107 -31.495296  -9.456555  93.180469 -32.429908 -11.175873  92.505801 -29.900800 -10.025443  94.646264 -21.566794 -14.710790  98.516492 -26.076591 -12.175680  96.564062 -24.431013 -13.121883  97.554433 -22.727825 -17.143097  98.186758 -23.538523 -15.212342  96.918774 -24.138351 -17.555632  95.970810 -27.824489 -12.132582  94.567126 -25.548798 -15.006309  96.429544 -28.133552 -16.272202  96.064325 -25.855271 -17.278743  95.501300 -30.717362 -18.847044  91.756138 -30.189911 -17.684905  93.929336 -29.364375 -13.753917  94.794205 -28.879257 -16.370264  93.906136 -27.330985 -14.287392  95.375974 -30.780518 -20.206497  93.354574 -25.684014 -22.751463  96.708412 -22.897111 -22.189229  96.909771 -29.340415 -23.365394  93.410286 -30.330259 -23.176282  90.706039 -26.458457 -23.807870  94.002184 -20.507904 -16.484273  97.818824 -19.026513 -18.763071  97.997840 -20.172126 -21.127496  96.454993 -31.366101 -22.287895  88.638288 -30.716409 -20.783367  90.937747 -28.222816 -20.793922  93.743829 -27.209598 -18.621934  95.548412 -28.696622 -18.218558  94.404636 -25.595887 -19.411070  95.162449 -23.741168 -21.210956  95.061410 -25.759926 -21.120183  94.194420 -25.365573 -18.208802  94.287393 -21.960739 -19.030764  96.109929 -23.737581 -18.658236  94.567939 -36.245416 -15.533075  88.520364 -18.777482  -9.966168  99.309296 -21.206204  -8.448526  98.196474 -20.005010  -7.087504  98.627954 -30.446662  -3.014375  90.805544 -22.077135 -10.349788  98.057653 -23.276458 -11.609868  96.123007 -23.136553  -6.901478  97.464692 -21.424129  -4.743653  97.181483 -24.073337  -6.617705  95.597176 -22.496732  -8.947481  95.925258 -27.740105  -7.034339  94.795524 -25.451071  -6.791937  94.249812 -27.841606  -5.073726  93.886862 -26.977066  -2.477098  94.359037 -27.746859  -2.155077  91.617641 -23.768999  -2.932924  95.319709 -25.922001  -4.627987  93.221192 -24.024312  -4.355960  94.389491 -20.572679  -6.993962  95.857180 -19.223722  -5.516038  96.087631 -20.924613  -3.646972  94.564855 -19.856232 -14.112585  97.922396 -18.079592 -13.008711  99.270250 -16.799904 -11.262939  97.546143 -21.945848 -13.364934  97.002312 -19.928054 -11.726324  97.131378 -19.063007 -16.999626  96.445710 -18.254531 -15.294744  96.705809 -16.542134 -14.262107  97.314769 -18.008854 -19.774217  95.503933 -16.900415 -17.086173  96.590806 -33.793682 -15.518456  89.240623 -30.243308 -17.965274  90.082079 -33.019891 -17.431887  89.037767 -31.814148 -19.537435  89.376666 -33.383210 -20.439191  87.956359 -34.669175 -17.724061  86.539768 -30.822535 -21.511384  86.136427 -30.329799 -12.051220  93.529630 -30.526698 -16.164076  91.986317 -30.285566 -14.374323  92.333346 -31.573826 -16.641890  89.294794 -33.419637 -13.827714  90.573330 -31.861082 -12.900290  91.423708 -24.247834  -9.422336  94.528091 -25.926470  -8.941106  95.339996 -28.970574  -4.899131  92.079477 -25.904640 -12.958305  93.736704 -25.775143 -10.828159  94.682395 -36.061281  -9.502815  89.098463 -33.699505  -9.293543  89.791131 -27.956610  -9.077705  94.047682 -29.546066  -7.793581  92.439758 -31.277152  -6.339621  91.480656 -31.242741  -8.275104  91.688534 -31.685765 -10.124347  90.663751 -32.723594  -4.513797  89.972941 -31.989261  -7.816816  89.800070 -34.654080  -6.974165  88.590515 -31.810280  -6.384304  89.114210 -30.104968  -6.060983  90.302483 -34.200068 -11.561338  89.893917 -35.348011  -9.553087  86.896014 -34.573381 -13.571765  88.349661 -34.105208 -11.693972  87.217360 -35.520024 -14.546925  86.171860 -35.369367 -11.981490  85.803737 -34.066062 -10.452388  84.379887 -32.059387 -14.795336  90.073603 -30.115091 -10.945756  92.289120 -27.868178 -11.083122  93.071561 -19.893730 -14.663297  96.183659 -20.819511 -16.417310  95.529060 -21.699727 -15.062844  96.561800 -24.584593 -15.852202  94.354874 -24.103048 -12.325563  94.607256 -23.498907 -14.426144  95.004828 -22.675761 -16.042189  95.141524 -21.528873 -13.363447  94.534462 -28.280203 -13.142255  92.694084 -26.739963 -16.774390  94.219928 -28.877679 -19.004822  91.548789 -28.291210 -17.257007  92.427339 -28.062813 -15.294259  92.064265 -25.778188 -14.738071  92.515365 -28.365845 -21.249138  91.633600 -29.416621 -21.605367  89.936195 -26.163750 -21.907855  92.435316 -21.437553 -22.625762  94.883264 -23.770496 -23.525104  94.411536 -28.595483 -23.311541  88.066085 -27.370023 -24.052192  91.158652 -24.566051 -24.091678  91.727410 -20.037639 -18.366909  95.617262 -23.036423 -21.814628  93.075236 -21.954404 -19.801794  93.746758 -19.969373 -19.893305  94.417836 -19.388225 -21.820534  93.679422 -30.274562 -20.477661  88.416270 -28.623949 -19.945153  89.959330 -26.722565 -18.995752  92.9436
[...]
            <PointData>
                <DataArray type="Float32" Name="U0" NumberOfComponents="3" format="ascii">
                    -65.511255 -43.088547 -35.682471 -63.728529 -42.465544 -38.273079 -65.463103 -43.013823 -35.307934 -66.345683 -42.844866 -30.245663 -61.523651 -41.566085 -40.457585 -61.631738 -41.276727 -37.742229 -62.513611 -41.766196 -37.895380 -64.347292 -42.504130 -35.984638 -65.705490 -42.846516 -32.953843 -64.272971 -42.160301 -33.587813 -61.185003 -40.911225 -36.761233 -63.063238 -41.785180 -35.737714 -66.593564 -43.231298 -32.312048 -65.198015 -42.602646 -33.172275 -66.258511 -43.094504 -32.723692 -62.333984 -41.913113 -39.777255 -65.081697 -42.785201 -35.106534 -64.085252 -42.587105 -37.725400 -62.835395 -41.817494 -36.924987 -64.634566 -42.289275 -33.119338 -63.457608 -41.832839 -34.444161 -63.914128 -42.055072 -34.224215 -65.737994 -42.581703 -30.768614 -63.992334 -42.176812 -34.853040 -63.467346 -42.166047 -36.980496 -62.549247 -41.918231 -38.892280 -60.738768 -41.136273 -40.332443 -60.818905 -40.963769 -38.631191 -62.898849 -41.543331 -34.420578 -61.406049 -41.289004 -38.712235 -64.728959 -42.001414 -30.469089 -66.722341 -42.838756 -28.655981 -66.201076 -42.257588 -26.205810 -62.365071 -41.200831 -34.080049 -65.250691 -42.309032 -30.628436 -63.372541 -41.404940 -31.431330 -66.667394 -42.915390 -29.595601 -66.396781 -42.428759 -26.825496 -61.342988 -40.910336 -36.090979 -61.505223 -40.995665 -36.075917 -60.040925 -40.889149 -41.340028 -61.229143 -41.087209 -37.899593 -57.311474 -39.553814 -42.290767 -61.136881 -41.289234 -39.926421 -60.729021 -40.697641 -36.953902 -64.416390 -41.593565 -28.510808 -64.790215 -41.822888 -28.805501 -65.873628 -42.279820 -27.768673 -63.757284 -41.802447 -33.009927 -62.899271 -41.628802 -35.196939 -62.921976 -41.269314 -32.281291 -63.384111 -41.334491 -30.882280 -61.205443 -40.293298 -31.801135 -60.339850 -40.205492 -34.756917 -58.960403 -39.772962 -37.149890 -59.905220 -40.489149 -38.813451 -57.876088 -39.428268 -38.984710 -58.070315 -39.746543 -40.664838 -58.355665 -40.052234 -41.853558 -59.279833 -40.206527 -39.170710 -57.438764 -39.376117 -40.352443 -57.627197 -39.448530 -40.159967 -59.596822 -39.822534 -34.865686 -59.829474 -40.301819 -37.645511 -59.218947 -39.851178 -36.673717 -62.498410 -41.273872 -34.114428 -61.396032 -40.649167 -33.819636 -65.730940 -42.192197 -27.684419 -63.114500 -41.311042 -31.792624 -64.669515 -41.968615 -30.396154 -63.076442 -41.024619 -29.689111 -62.596635 -41.184262 -32.824221 -64.285316 -41.988753 -32.125375 -64.671363 -41.894690 -29.769726 -63.493880 -41.339133 -30.262448 -63.867948 -41.779443 -32.197921 -62.158278 -41.401241 -36.438883 -62.031271 -41.205163 -35.449484 -61.163614 -40.684409 -35.017685 -61.575579 -40.657853 -33.080125 -62.661757 -41.037174 -31.460529 -61.912050 -40.884838 -33.381828 -58.999517 -40.018782 -38.825463 -58.042625 -39.860495 -41.611981 -62.078465 -41.383119 -36.609327 -62.391697 -41.182367 -33.680069 -63.801735 -41.273434 -28.462224 -63.999888 -41.248302 -27.433193 -56.389586 -38.924390 -41.162812 -59.115339 -40.229319 -39.980596 -59.668053 -40.273378 -37.979883 -61.829753 -41.011263 -34.696079 -61.075599 -40.786129 -36.112252 -59.522629 -40.165790 -37.756541 -59.913411 -40.234510 -36.674058 -61.257691 -40.449888 -32.642358 -59.807130 -40.100460 -36.013961 -60.337010 -40.162527 -34.253064 -62.780994 -40.945264 -30.155536 -61.013155 -40.280515 -32.325726 -65.449548 -41.583813 -23.995271 -64.315755 -41.447392 -27.796701 -64.606945 -41.329688 -25.606141 -64.077026 -41.336561 -27.950457 -63.867294 -41.220841 -27.902992 -64.510384 -41.338627 -26.082043 -64.939861 -41.356621 -24.382123 -64.385958 -41.255374 -25.963008 -61.544445 -40.494766 -31.970637 -62.713624 -40.869969 -30.004758 -62.094309 -40.382433 -28.746150 -62.899699 -40.475646 -26.074937 -63.573513 -40.619005 -24.338293 -64.593845 -41.297053 -25.325197 -65.411901 -41.657779 -24.753845 -63.761640 -41.191238 -27.970317 -63.368516 -40.647473 -25.308432 -62.940921 -40.314447 -24.456153 -55.402402 -38.550709 -42.423746 -55.239751 -38.445268 -42.246688 -54.077735 -37.712415 -41.328694 -53.244489 -37.372571 -42.196407 -59.858061 -40.007826 -35.218573 -60.658351 -40.417738 -35.069830 -57.554257 -39.262490 -38.950895 -58.676741 -39.649899 -37.294520 -59.672480 -40.002287 -35.893540 -55.669258 -38.381462 -39.924701 -57.969760 -39.447768 -38.719419 -58.184718 -39.337712 -36.943156 -61.945251 -40.098253 -27.133221 -63.298669 -40.876661 -27.595156 -59.563851 -39.080474 -29.131553 -62.180813 -40.290675 -27.645298 -61.557985 -40.376042 -30.977331 -61.134727 -40.384321 -32.819327 -61.756526 -40.510070 -31.209207 -61.898232 -40.348446 -29.325031 -59.817637 -39.636969 -32.471845 -59.735630 -39.464289 -31.451648 -58.210722 -38.889107 -33.333893 -58.614732 -38.980819 -32.355380 -56.892315 -38.411690 -35.111248 -56.436323 -38.497604 -37.706827 -57.429592 -38.688804 -35.043303 -56.864411 -38.625613 -36.910444 -57.613000 -39.158270 -37.952453 -55.926915 -38.501287 -39.871048 -56.864988 -38.941113 -39.377857 -55.467168 -38.476079 -41.588397 -53.223986 -37.101572 -40.188435 -57.104447 -38.907664 -38.070546 -55.854379 -38.329752 -38.758738 -56.144810 -38.583451 -39.560974 -58.403060 -39.086855 -34.076830 -57.551755 -38.858774 -35.845459 -59.733623 -39.641089 -32.851774 -62.846063 -40.621675 -27.289374 -61.297065 -40.162219 -30.320610 -62.122482 -40.473463 -29.239656 -62.242163 -40.596334 -29.630839 -61.261973 -40.046479 -29.430453 -60.076077 -39.637796 -31.183203 -59.399516 -39.355062 -31.947007 -60.824845 -40.039267 -31.250396 -60.331793 -40.165653 -34.356916 -59.665318 -39.605429 -32.684765 -55.905438 -38.281024 -38.116389 -58.122923 -39.325183 -37.026438 -59.425116 -39.660512 -34.244533 -58.258336 -39.154242 -35.106496 -59.911486 -39.714107 -32.579641 -57.268679 -39.104363 -38.871715 -60.161151 -40.199424 -35.296335 -60.418157 -39.965496 -32.344459 -56.937784 -38.960189 -39.103016 -54.376534 -37.700100 -39.951181 -57.447150 -38.914765 -36.571768 -61.966523 -40.139186 -27.164123 -61.866153 -40.051662 -26.898794 -60.108028 -39.405588 -29.196110 -52.507738 -36.769725 -40.487873 -54.888241 -37.864367 -39.101200 -57.566291 -38.995843 -36.726024 -59.552088 -39.793577 -34.659321 -58.510373 -39.388767 -35.871936 -59.084232 -39.402516 -33.514713 -58.768587 -39.126812 -32.653356 -57.953659 -38.928914 -34.537338 -58.392015 -38.927962 -32.681758 -60.029169 -39.446041 -29.844088 -58.602090 -38.874703 -31.352725 -53.215286 -37.292266 -41.710670 -64.176858 -40.680326 -22.187379 -63.295638 -40.399888 -23.743226 -63.874459 -40.476686 -21.889881 -56.904899 -37.743986 -29.780450 -62.931733 -40.437072 -25.565991 -60.932737 -39.598671 -27.343898 -62.788116 -40.257453 -24.795612 -62.776463 -39.907448 -22.045308 -61.038362 -39.416410 -25.539353 -61.063973 -39.397104 -25.229413 -60.231388 -39.451543 -29.256249 -59.732871 -38.896467 -26.940587 -59.598896 -38.999515 -28.346252 -60.361612 -39.136248 -26.192943 -57.780943 -37.830641 -26.760552 -61.219761 -39.238871 -23.358495 -59.012320 -38.427813 -26.280555 -60.157984 -38.794622 -24.329243 -61.233539 -39.130189 -22.380303 -61.632859 -39.085187 -20.331261 -60.406699 -38.511367 -21.000456 -62.347844 -40.110644 -25.337771 -63.772444 -40.581447 -23.069514 -62.330515 -39.546350 -20.946741 -61.558032 -39.892089 -26.966289 -61.876115 -39.710851 -24.189947 -60.589547 -39.265464 -26.037027 -61.041272 -39.298641 -24.395677 -61.748404 -39.401685 -22.228736 -59.357723 -38.660425 -26.436059 -60.717860 -39.078543 -24.007604 -53.906020 -37.364488 -39.357982 -54.411844 -37.369495 -37.210021 -53.479908 -37.169740 -39.593486 -53.547956 -37.199210 -39.514179 -52.080780 -36.663636 -41.474591 -51.055475 -36.093990 -41.318858 -50.208704 -35.426629 -39.569929 -58.422922 -39.128327 -34.290420 -56.450706 -38.372684 -36.568161 -56.998697 -38.517728 -35.427612 -53.820997 -37.126136 -37.806593 -55.384744 -37.996981 -38.139865 -56.309025 -38.241126 -36.178297 -59.676319 -38.897093 -27.141709 -60.517249 -39.511828 -28.505560 -57.894350 -38.215038 -29.332256 -58.499165 -38.702588 -30.526960 -59.659755 -39.162893 -29.323622 -54.496209 -37.558913 -38.459389 -55.183419 -37.625803 -36.093754 -59.271115 -39.099075 -30.507083 -57.891823 -38.470335 -31.362228 -57.151987 -38.190265 -32.272270 -57.118401 -38.294127 -33.227800 -55.916867 -37.827919 -34.592700 -55.930625 -37.596245 -32.722823 -55.368710 -37.421385 -33.703939 -54.314193 -37.127210 -35.823067 -54.884656 -37.048864 -32.801284 -56.057828 -37.447366 -31.006192 -55.008829 -37.741676 -37.729431 -52.383439 -36.349862 -37.800913 -53.289455 -37.001691 -39.110061 -52.433277 -36.365443 -37.702954 -51.088164 -36.006106 -40.511967 -51.045632 -35.797674 -39.059294 -49.867481 -34.912496 -37.030169 -54.789556 -37.579530 -37.331074 -57.369978 -38.467851 -33.515387 -58.096247 -38.595020 -31.442102 -60.617342 -39.229671 -25.647349 -59.782814 -39.009695 -27.423150 -60.934191 -39.641326 -27.586600 -58.736445 -38.865431 -30.740027 -59.400629 -38.927375 -28.488069 -59.524798 -39.063244 -28.980888 -59.460340 -39.036563 -29.012024 -59.197047 -38.583061 -26.548802 -57.488330 -38.457267 -32.884308 -58.503803 -39.057876 -33.268361 -55.685856 -37.954415 -36.436937 -56.736025 -38.330383 -34.988708 -56.625538 -38.114531 -33.769223 -57.116458 -38.068535 -31.303006 -55.494551 -37.936907 -37.090618 -53.829971 -37.197442 -38.275465 -56.177932 -38.080931 -35.321210 -58.426156 -38.758439 -31.168069 -57.869437 -38.799225 -33.857566 -51.834424 -36.144442 -38.358781 -54.700403 -37.574945 -37.566655 -55.236264 -37.527122 -34.904704 -59.634806 -38.962189 -27.664013 -56.796128 -38.029667 -32.282863 -57.676756 -38.240736 -30.224499 -58.305150 -38.343489 -28.372687 -57.368745 -37.898177 -28.796711 -52.514441 -36.524610 -38.519183 -54.052394 -37.113483 -36.669742 -57.015963 -38.406724 -34.374867 -57.161113 -38.298549 -32.879269 -57.077700 -38.094367 -31.622769 -57.725620 -38.104627 -28.935965 -56.352552 -37.656642 -31.195889 -54.795147 -37.272571 -34.767066 -53.104530 -36.665696 -37.224392 -51.587433 -36.062209 -38.833431 -49.085128 -34.844188 -39.749107 -61.590636 -39.459741 -23.440867 -62.409555 -39.504771 -20.328035 -60.111833 -38.122993 -19.100091 -55.590679 -36.915551 -28.762879 -54.572184 -36.600429 -30.569583 -54.952266 -36.403615 -27.398252 -60.017295 -38.893872 -25.595192 -60.128084 -38.725258 -23.866627 -59.008371 -38.356230 -25.701442 -59.798022 -38.196335 -21.002973 -59.277815 -38.236010 -23.528845 -59.296555 -38.499971 -25.595770 -58.404887 -38.096094 -26.115238 -58.077068 -38.161061 -28.117337 -58.488668 -38.332531 -27.715512 -56.603088 -37.237597 -27.029067 -58.527665 -37.881494 -23.992036 -56.312120 -36.806454 -24.838142 -58.742122 -37.745173 -21.984609 -57.118544 -37.310837 -25.398426 -57.727809 -37.430804 -23.783227 -58.621632 -37.764039 -22.616770 -59.156449 -37.943942 -21.744302 -59.256587 -37.706468 -19.457334 -57.811524 -37.073537 -20.581478 -60.711274 -38.940031 -22.957965 -60.434809 -38.335448 -19.365210 -60.217112 -38.345370 -20.320328 -59.928532 -38.412846 -22.102852 -59.668330 -38.572528 -24.469093 -59.480180 -38.411023 -24.011996 -56.493208 -37.118097 -26.297287 -58.734920 -38.195340 -25.371386 -59.140838 -38.373938 -25.088866 -57.795505 -37.824045 -26.404117 -59.482463 -38.143901 -21.800597 -58.146839 -37.702901 -23.932756 -49.370455 -34.696916 -37.317498 -51.415845 -35.739865 -36.929962 -55.043392 -37.437640 -35.080801 -53.569806 -36.775680 -36.047918 -53.256912 -36.470093 -34.974786 -52.627376 -36.408922 -37.176802 -52.210142 -36.132581 -36.718664 -51.833373 -36.194060 -38.807993 -50.144734 -35.175103 -37.886594 -51.000943 -35.719475 -38.549418 -49.557513 -35.156935 -40.209791 -48.315887 -34.239152 -38.171670 -57.463642 -37.981844 -29.143329 -55.504952 -37.587998 -34.390344 -55.074257 -37.421096 -34.853072 -54.173374 -36.997961 -35.354476 -57.542226 -37.885968 -28.102809 -57.490552 -37.724918 -27.081603 -57.934020 -38.227898 -29.207875 -56.890143 -37.735538 -29.743086 -56.085167 -37.242482 -29.255342 -56.928441 -37.819559 -30.186349 -55.693008 -37.319267 -31.474098 -53.333397 -36.614709 -35.893933 -54.069988 -36.855399 -34.687222 -55.987885 -37.566543 -32.220217 -54.318429 -36.820805 -33.351037 -55.404149 -37.147505 -31.382640 -54.073791 -36.611326 -32.748197 -53.091162 -36.085296 -32.738153 -53.448254 -36.408718 -33.789278 -51.420093 -35.492628 -35.087101 -53.969578 -36.414345 -31.635790 -54.495995 -36.468440 -29.840866 -52.573754 -35.529060 -30.512123 -52.485913 -35.373879 -29.646229 -52.496881 -36.154623 -35.766125 -50.878242 -35.230866 -35.293184 -50.609698 -35.379712 -37.577491 -50.522860 -35.177484 -36.356430 -49.231465 -34.772439 -38.587192 -47.653779 -33.898230 -38.289486 -47.584614 -33.765678 -37.549489 -48.074269 -33.841056 -36.100233 -49.070487 -34.131889 -34.212792 -50.692076 -34.738062 -32.179695 -53.029185 -36.342852 -34.969458 -55.751423 -37.486833 -32.526794 -54.123367 -36.758279 -33.609083 -58.430205 -38.159342 -26.397221 -57.482452 -37.699545 -26.809746 -56.780022 -37.612673 -29.058927 -57.729930 -37.945447 -27.681118 -57.777325 -37.666189 -25.268242 -55.399747 -37.126020 -31.115983 -55.580325 -37.345924 -32.042782 -54.419762 -37.023959 -34.404810 -53.888579 -36.529325 -32.755601 -55.866729 -37.117357 -29.016557 -52.651843 -36.284953 -36.003323 -54.602298 -37.041193 -33.729486 -55.559083 -37.306544 -31.777666 -50.531575 -35.128624 -35.813071 -52.601749 -36.222185 -35.710867 -53.362289 -36.329536 -33.333049 -56.628272 -37.359029 -27.648267 -55.959345 -36.871449 -26.614798 -55.221391 -36.688434 -28.299252 -53.037359 -35.901150 -31.305297 -55.247036 -37.002837 -30.678676 -55.608726 -36.900893 -28.326841 -54.521178 -36.374545 -28.760221 -52.496770 -36.130624 -35.461414 -51.446740 -35.500634 -34.887789 -53.025531 -36.302973 -34.566182 -55.091387 -36.920749 -30.712397 -54.958795 -37.035253 -32.176810 -53.336131 -36.297335 -33.206168 -54.594570 -36.529970 -29.693405 -53.718691 -36.389582 -32.294561 -51.587889 -35.534719 -34.675250 -48.529233 -34.185316 -36.883051 -50.671059 -35.315996 -36.799481 -59.004308 -37.898675 -21.952108 -58.377933 -37.339437 -20.160324 -58.272407 -37.269507 -20.107085 -54.453551 -35.798303 -24.687350 -54.365662 -35.962274 -26.365821 -53.919252 -35.896279 -27.728791 -53.520947 -35.746488 -28.229205 -52.277577 -34.868436 -26.496465 -57.601852 -37.533889 -25.000090 -57.802568 -37.465844 -23.689824 -57.990881 -37.384642 -22.187414 -56.591342 -37.029644 -25.314103 -56.736324 -37.259879 -26.510773 -55.800526 -36.695087 -25.924668 -55.342381 -36.574516 -27.058196 -55.400867 -36.294753 -24.601427 -55.935936 -36.299164 -22.384117 -55.821657 -36.446269 -23.946108 -56.178066 -36.331699 -21.570093 -57.236200 -36.788258 -20.692260 -57.947633 -37.599978 -23.994472 -58.330499 -37.516428 -21.696472 -58.407915 -37.435537 -20.751221 -56.406232 -36.647381 -22.966930 -57.235287 -37.142780 -23.393664 -54.830291 -36.312310 -26.941640 -56.425367 -36.846823 -24.437484 -55.910118 -36.657312 -25.102917 -57.248285 -37.112724 -23.054090 -49.545248 -34.573964 -35.602896 -48.990324 -34.160186 -34.669685 -47.547105 -33.529838 -35.796527 -50.154921 -34.946282 -35.986555 -52.396193 -35.874703 -33.867231 -51.801670 -35.579812 -34.083553 -50.478796 -35.064461 -35.600352 -49.085541 -34.473256 -36.783034 -46.729015 -33.141645 -36.198485 -55.401465 -36.690257 -27.623385 -55.450334 -36.914379 -29.228887 -53.811656 -36.519963 -33.080569 -52.311002 -35.769871 -33.505811 -55.682787 -36.911849 -28.264557 -54.765174 -36.621742 -29.892180 -54.704756 -36.655577 -30.367102 -53.878519 -36.331916 -31.323441 -51.556484 -35.311020 -33.073035 -53.521834 -36.143192 -31.355864 -53.507119 -36.064910 -30.811167 -52.334279 -35.560954 -31.777046 -53.176472 -35.656297 -28.957323 -52.358819 -35.252361 -29.220401 -50.707173 -34.594675 -30.980340 -50.345926 -34.154724 -29.002545 -51.304271 -35.147026 -32.810967 -50.192725 -34.701512 -33.986235 -48.945555 -34.226081 -35.471348 -47.898151 -33.637620 -35.205805 -46.584943 -32.902198 -34.934785 -46.356283 -32.902059 -35.885877 -50.040847 -34.380840 -32.099617 -47.336003 -33.108038 -33.409275 -48.662356 -33.548936 -31.299128 -53.023824 -35.985029 -32.151259 -54.305945 -36.374055 -29.733059 -53.599700 -35.956059 -29.439167 -55.949571 -36.794072 -26.058172 -55.472384 -36.320711 -24.300198 -51.005215 -34.941933 -32.417132 -54.418016 -35.912476 -25.517260 -54.170518 -36.044011 -27.642311 -52.341072 -35.508828 -31.207423 -52.967530 -35.939487 -31.938418 -53.532639 -35.918425 -29.353052 -53.544543 -35.752297 -27.956786 -54.405415 -35.931658 -25.719762 -51.206828 -35.228146 -33.733753 -53.199897 -36.059671 -31.872944 -50.871236 -34.936175 -32.842472 -54.426356 -36.210965 -27.858228 -52.736124 -35.523067 -29.563539 -52.369428 -35.380477 -29.996742 -53.486477 -35.714752 -27.900911 -50.420946 -34.775415 -33.480089 -51.651896 -35.280914 -32.257191 -49.544667 -34.192156 -32.558606 -52.128357 -35.392526 -31.120226 -49.427423 -34.274872 -33.815580 -56.548315 -36.408347 -20.423167 -56.347317 -36.286584 -20.357259 -53.590643 -35.308763 -24.433196 -53.185557 -35.487335 -27.553715 -53.088624 -35.192543 -25.627449 -51.914108 -34.815087 -27.621423 -51.914676 -34.600646 -25.892475 -51.081815 -34.343068 -27.385031 -55.070484 -36.130542 -24.530176 -55.354685 -36.032743 -22.542455 -54.709319 -36.108423 -25.958380 -53.859064 -35.802154 -27.088228 -54.103358 -35.767594 -25.726531 -54.494773 -35.485515 -21.759079 -53.321565 -35.289909 -25.365453 -54.159128 -35.458352 -23.101442 -54.309444 -35.481073 -22.714449 -54.990608 -35.668066 -21.231173 -56.359123 -36.459542 -21.630281 -54.988316 -35.800408 -22.173189 -54.433491 -35.749476 -24.142049 -53.280667 -35.165701 -24.388347 -53.494491 -35.470581 -25.915179 -54.964431 -35.950722 -23.502976 -54.008146 -35.182974 -21.453768 -47.672712 -33.401643 -34.255282 -48.507100 -33.749380 -33.461250 -53.724991 -35.332161 -23.825905 -52.566353 -34.751144 -24.123611 -49.906130 -34.323339 -32.085933 -50.122330 -34.558175 -33.066299 -48.935781 -33.944123 -33.244375 -47.258676 -33.131519 -33.885870 -53.276277 -35.535917 -27.492821 -51.996756 -35.329799 -31.337154 -53.124180 -35.728212 -29.715341 -50.055440 -34.221838 -30.734480 -51.473017 -34.868796 -29.925202 -49.729891 -33.816886 -28.941321 -49.671681 -34.041851 -30.966052 -47.552602 -33.121320 -32.601738 -47.194258 -33.015570 -33.261755 -48.355836 -33.337947 -30.942290 -51.793678 -34.958028 -29.189560 -52.749448 -35.343694 -28.134064 -51.244322 -34.438012 -27.452774 -53.173897 -35.278906 -25.761158 -50.633825 -34.490524 -30.371928 -52.231514 -34.871988 -26.518473 -51.796848 -34.850151 -28.231267 -50.980907 -34.629320 -29.950965 -51.294596 -34.696751 -29.123704 -52.047933 -34.849778 -27.119867 -50.493946 -34.429880 -30.400508 -51.662343 -34.755157 -28.005280 -48.835607 -33.616609 -30.978096 -49.635473 -33.951637 -30.262100 -48.612319 -33.510953 -31.208133 -54.679925 -35.362669 -19.953403 -52.922684 -34.682209 -22.027115 -52.607946 -34.247777 -19.842906 -53.871347 -34.937857 -20.023326 -54.627035 -35.269473 -19.406329 -52.137974 -34.496528 -24.114371 -51.739995 -34.504934 -25.868408 -50.394545 -33.838290 -26.305018 -52.176363 -34.767085 -25.972917 -53.139439 -35.013254 -23.836525 -51.780992 -34.011592 -21.578192 -51.597224 -34.390072 -25.503117 -52.162677 -34.375309 -22.862273 -51.478712 -34.133437 -23.962120 -52.299230 -34.266890 -21.462944 -53.156182 -34.854819 -22.428564 -51.295956 -34.086247 -24.233564 -50.939920 -34.080566 -25.703698 -52.590041 -34.660913 -23.349796 -51.685933 -33.817180 -20.423126 -52.891292 -34.281353 -19.000285 -51.891671 -33.949689 -20.693904 -47.667885 -33.116464 -31.997338 -51.146132 -34.019670 -24.371129 -51.293351 -33.824222 -22.155102 -48.743998 -33.542907 -30.854856 -47.087070 -32.737278 -31.531051 -50.317411 -34.076531 -28.502638 -49.085746 -33.522589 -29.299336 -48.628059 -33.155378 -28.404508 -47.520297 -32.840604 -30.576774 -50.331485 -33.943078 -27.298092 -49.441508 -33.324909 -26.295015 -49.654489 -33.425044 -26.137204