<?xml version="1.0"?>
<VTKFile type="UnstructuredGrid" version="0.1" byte_order="LittleEndian">
    <UnstructuredGrid>
        <Piece NumberOfPoints="3172" NumberOfCells="14894">
            <Points>
                <DataArray type="Float32" NumberOfComponents="3" format="ascii">
                    -31.476796   2.149140 100.803992 -34.688943   2.788712  97.513667 -33.344902   0.000323  99.656490 -35.454748   0.062052  96.947175 -33.063231  -3.378159  99.182065 -34.802252   5.077390  95.481493 -31.116099  -5.118879  99.791950 -29.098956  -5.055885 100.823112 -31.163268  -2.747637 100.831304 -30.278672  -0.407738 101.662330 -28.214469  -2.973640 101.932346 -25.978776  -3.094094 102.176847 -29.969758  -6.941266  99.089394 -30.737606  -5.439427  97.949256 -32.842022   3.433243  99.363110 -33.020994   6.868094  96.347479 -33.621949   4.985835  97.574069 -31.888819   6.035070  98.540653 -30.589928   4.595347 100.401952 -28.092429   2.618236 102.055305 -28.864548   2.748774  99.780535 -30.539419   2.942140  99.086781 -27.886504   5.437103 100.960726 -27.070721   0.791754 100.826043 -26.918672  -0.472715 102.551104 -24.237493  -1.715276 102.377625 -24.629199   1.459207 102.463207 -25.531452   4.440200 101.688269 -29.205257   7.090920  99.332567 -26.143300   7.131640 100.012432 -30.856661   8.201864  96.988193 -33.043921   3.398792  96.404321 -31.699374   1.615666  97.570109 -29.720310   0.815136  99.763224 -32.371736   4.873908  95.764067 -36.001678   2.885032  94.688065 -33.515319   1.602654  95.277129 -33.256718   3.696764  94.501264 -32.317452  -6.047869  98.129696 -34.698047  -2.124016  97.770598 -34.328523  -4.721514  96.772303 -30.831981  -1.212448  98.714739 -32.620655  -0.748946  97.141617 -31.065326  -3.629849  97.261932 -36.682300   0.516924  93.428246 -36.138127  -2.231123  94.772967 -34.423626  -0.554465  94.904487 -32.717811  -2.722879  96.142418 -34.756526   3.352421  93.361951 -36.373226   3.094345  92.483844 -33.990391   7.001631  94.043792 -35.490364   5.043889  93.259776 -33.485554   5.175587  92.841765 -22.637536   3.076817 101.713028 -23.633434   5.807413 100.732068 -29.248630  -4.245359  98.214916 -28.065987  -3.176583  99.503211 -27.701326  -7.000950  99.908783 -27.339934  -4.736850  98.698335 -26.675269  -5.061941 101.354490 -28.150590  -3.188637  96.918177 -28.068386  -0.939163  99.691248 -27.237281   0.887064  99.358123 -26.499501  -2.870296 100.171497 -24.630951  -2.469463 100.877782 -24.177161  -4.396419 101.584392 -23.259671  -1.335236 100.521490 -21.799607  -0.113142 101.883994 -22.448168  -3.099115 101.646026 -30.634499  -5.735610  96.215014 -24.646290  -6.781358 100.230819 -30.856803  -8.201260  96.988193 -28.292369  -8.795753  97.791146 -28.559065  -6.291139  97.225768 -25.543794  -8.740955  98.349100 -31.285608   6.362790  94.970557 -31.836541   8.796383  94.486030 -32.359574   6.648846  92.072263 -32.584858   8.741631  91.782895 -21.179150   5.529303  99.978815 -30.712732   4.284883  97.897574 -30.942153   5.687498  96.806697 -28.899279   4.429634  98.672110 -30.826189   3.821215  95.731989 -23.722588   1.184914 100.003574 -27.177865   2.799421  99.768066 -25.994103   2.164960 100.370559 -28.274709   1.444087  98.235277 -28.682623   2.799896  97.275028 -27.214070   4.603237  98.741945 -25.524716  -0.329174  99.795271 -26.415016   1.361336  98.787732 -24.639346   3.757123  99.655990 -23.119032   7.960617  98.783181 -24.869048   5.804349  98.223120 -27.984905   8.745708  97.975701 -25.549375   8.987537  98.021842 -20.327185   2.464898 100.875201 -22.824633   5.605446  98.202460 -18.741062   4.306759  98.959182 -33.324541  -7.071381  95.511856 -32.061809  -8.732268  94.188474 -34.255099  -7.067077  92.507270 -29.874762  -4.461091  95.576246 -32.277183  -8.973732  91.748146 -28.599837   6.231158  96.876594 -26.730842   6.255545  97.264246 -29.183362   7.563660  94.364846 -27.621547   8.437940  95.448334 -29.127936   9.933549  95.134336 -26.354531  10.150936  95.957461 -31.297600   2.016541  95.462923 -31.972579  -0.035153  95.571900 -32.361390   0.766106  94.438457 -28.671417  -1.420726  97.603088 -30.057914   0.152157  96.355127 -29.370874   4.857501  94.190694 -31.497717   4.527603  93.327318 -30.394337   2.900607  94.121312 -34.276383   1.497444  93.040162 -31.924373   2.163592  93.245553 -33.263125   3.368876  92.056697 -34.593247   2.338277  90.895132 -36.694903   1.714978  90.759231 -34.614956  -0.398020  92.464581 -32.155501  -5.013185  94.610994 -34.005121  -2.814798  94.757422 -35.090043  -5.364905  94.229196 -30.760338  -1.504515  95.687200 -31.332954  -3.541019  94.423186 -29.345612  -2.601053  95.289749 -36.759754  -1.456623  91.514772 -36.372065   0.119748  88.293238 -35.950953  -4.370926  91.901431 -34.154134  -2.376289  92.361546 -35.090127  -5.802071  89.991837 -36.121073  -3.139008  89.102798 -32.492269  -1.001939  93.609986 -31.590337   0.473311  92.886567 -35.909799   4.392164  90.644586 -34.525783   6.780778  91.021263 -36.092270   3.090181  88.923100 -33.113099   5.035892  90.793323 -35.350949   0.137156  85.948689 -21.987472   3.663046  99.240072 -21.396553   4.442820  97.681098 -27.758185  -4.499807  96.160833 -26.514648  -2.192470  98.166330 -26.312786  -5.959136  97.421376 -26.125673  -3.978583  97.149297 -24.463718  -4.054608  99.240882 -23.652073  -5.875004  98.377661 -27.366975  -2.675180  95.593114 -26.775141  -0.542828  97.446923 -27.627580   0.674207  96.391435 -24.033552  -0.826972  98.090462 -24.310004  -2.402852  98.521794 -22.584411  -2.615742  99.415156 -21.695287  -5.466410 100.277631 -21.630169  -1.228450  99.696465 -21.673629   0.872697  98.972722 -20.317302   2.118552  98.530872 -19.531326  -0.134317 100.701698 -20.378199  -2.737770 100.828539 -20.119858  -2.619258  98.671039 -18.976443  -4.463964  99.083067 -30.681810  -6.875906  93.855206 -28.402412  -5.574486  95.087162 -28.917711  -7.750422  94.627149 -22.773674  -8.175462  98.400296 -26.459021  -8.305474  95.753697 -27.855505  -9.014885  93.669718 -29.128108  -9.932975  95.134336 -26.229623 -10.272453  95.683228 -30.161697 -10.142022  92.426831 -31.200041  -9.588874  90.288951 -20.083569  -7.104426  97.879657 -23.529513  -9.807208  96.204533 -27.092571  -6.459661  95.062041 -24.970170  -7.231299  96.030915 -32.829344   8.176018  89.023285 -30.387354   7.377636  92.390868 -29.877824  10.272976  92.281190 -30.754622   5.697305  91.265369 -31.844980   6.950358  89.678418 -29.954437   6.889608  90.104545 -30.587039   9.806919  89.621947 -24.145085   9.595958  96.849957 -20.036684   7.019123  97.932712 -21.553583   9.179954  96.122494 -28.541486   4.282934  96.298612 -28.742701   2.732143  95.266160 -24.016606   1.982839  97.808879 -25.798783   3.158985  98.032475 -26.580537   2.175605  96.318937 -26.517979   4.264263  96.961635 -25.714409   0.630228  97.452800 -23.211863   4.001454  97.536378 -24.680723   5.121905  96.418559 -23.475389   7.473546  96.772862 -26.516439   6.714495  94.617770 -25.361032   7.665030  95.988300 -18.085438   1.225593  99.441988 -17.825894   5.821694  96.657600 -16.787359   2.894602  97.381835 -22.318425   5.662775  96.109738 -19.151460   3.052167  96.893917 -20.152156   5.584032  96.224409 -21.143051   3.622990  95.916092 -32.999689  -6.159636  92.237015 -31.881617  -6.735260  90.039986 -33.179462  -7.963095  89.378577 -28.715388  -3.538923  94.014191 -30.260855  -4.989742  93.040350 -29.772885  -7.630471  91.915865 -28.412006  -4.633942  92.617213 -30.650319  -9.185944  87.673014 -27.155235   5.165339  94.449718 -27.857280   3.668508  93.672105 -25.740936   8.621566  94.657067 -27.629814   8.498330  93.167570 -28.416551   5.964781  92.770096 -28.513484   7.479492  91.946580 -27.038707  10.893244  93.191876 -27.915741  10.814287  90.286347 -23.928311  10.655620  94.017762 -30.271092   0.497615  94.344395 -28.388486  -1.300911  94.943107 -29.106353   2.203237  93.300582 -26.931082   1.434534  94.355800 -29.697379   3.686118  92.252060 -35.418747   2.734414  86.800617 -34.491867   2.374296  88.233727 -29.765454   4.430559  90.601908 -31.047094   8.859791  87.439341 -29.761142  -1.166998  93.267725 -27.498887  -2.785988  93.061557 -33.216758   3.377653  89.903114 -31.084729   3.383984  91.118686 -34.276544   1.704487  86.727207 -34.262727   0.112054  86.868248 -30.324542   1.455364  91.751117 -32.772893   0.558674  91.472306 -34.195056   0.878369  89.919175 -33.370696   1.060528  88.245629 -33.387949  -1.627834  90.851836 -32.514731  -4.010228  92.595750 -31.014477  -2.448338  92.775237 -33.900093  -1.247858  88.689733 -35.471612  -2.459384  86.758271 -33.286216  -4.298000  90.124620 -34.537350  -5.515547  87.573120 -33.473764  -3.021249  88.186334 -30.549149  -0.921390  91.422018 -34.782499   5.457837  88.077478 -31.743163   4.959602  89.104060 -29.877999   5.443158  89.367559 -33.759207   4.480908  85.273876 -32.567168  -7.070533  86.347945 -33.595361  -4.382255  85.001837 -34.154821   1.578606  84.440475 -34.193197  -1.223092  84.415911 -21.800194   2.418179  96.889247 -26.350152  -4.285798  94.847164 -25.590108  -2.534381  96.613183 -24.536383  -4.546424  96.506458 -21.860514  -5.798847  96.896443 -22.970441  -3.652700  97.987479 -23.469715  -6.093997  95.573031 -26.120559  -1.262675  94.630527 -25.096273  -0.020835  96.024163 -23.934469  -2.310831  96.411388 -22.152794  -0.078539  96.683613 -21.969304  -1.933316  97.221266 -20.917915  -4.116992  97.303877 -19.617617  -0.365363  98.315064 -19.923795   0.667345  97.121402 -18.111488  -1.575738  99.405104 -16.514424  -0.134931  97.663945 -19.804456  -1.854660  96.550031 -16.852027  -3.088581  97.381017 -19.249383  -4.012565  97.102627 -21.318362  -8.859528  96.511766 -20.306165  -5.918893  95.701498 -17.881361  -5.893723  96.660058 -29.646802  -7.898789  89.277769 -29.208353  -8.967810  91.077140 -26.821115  -5.333695  92.358751 -28.266152  -6.770647  92.550619 -26.212724  -7.224089  93.461473 -22.480869  -7.918172  95.045071 -24.934987  -8.534207  94.218553 -27.074252  -8.674021  91.631666 -26.264630  -9.447793  93.1449
[...]
            <PointData>
                <DataArray type="Float32" Name="U0" NumberOfComponents="3" format="ascii">
                    -258.105150    4.898018 -117.876866 -246.481287    5.898682 -129.017681 -254.623453    5.426220 -124.524962 -245.164143    6.118625 -131.870052 -253.783791    5.387895 -123.767917 -238.842372    6.066475 -129.254311 -256.328444    4.876453 -117.099019 -259.906998    4.320481 -110.071756 -259.378999    4.820705 -117.110381 -261.710700    4.552117 -113.883668 -263.270015    4.035501 -106.873854 -264.152333    3.481923  -99.172778 -254.318236    4.645202 -113.220648 -249.982731    4.905853 -115.799761 -252.773246    5.327569 -122.539904 -241.428512    5.579840 -122.921335 -246.161044    5.639240 -125.147478 -249.276662    5.156243 -119.034423 -256.114012    4.713972 -114.611213 -262.353502    3.994156 -106.119798 -254.393831    4.342844 -108.760454 -251.931317    4.792430 -114.558606 -257.855671    4.025469 -105.135906 -258.510087    3.835027 -102.677238 -264.825116    3.682679 -102.266000 -264.527091    3.043186  -92.999837 -264.062320    3.130396  -94.133647 -260.633019    3.401372  -96.996526 -251.781307    4.456301 -109.606166 -254.138946    3.669302  -98.924308 -243.338690    5.015980 -115.282704 -242.466100    5.578882 -123.241350 -246.963038    5.173157 -118.683095 -254.803283    4.543956 -111.861049 -239.876213    5.462465 -120.795000 -236.605588    6.406830 -133.584810 -238.969885    5.766453 -125.005677 -235.757309    5.759672 -123.959082 -250.758715    5.275715 -121.345231 -248.561801    5.878175 -129.381200 -245.706999    5.854257 -128.266259 -251.635736    4.880571 -115.857123 -246.038926    5.420776 -122.050639 -247.151599    5.031991 -116.822347 -232.783792    6.654073 -136.117907 -238.135964    6.428618 -134.407227 -238.190880    6.007648 -128.316392 -243.029741    5.508821 -122.518215 -231.867688    6.197659 -129.210057 -228.867530    6.646347 -134.864616 -233.362672    5.970196 -126.289929 -231.102270    6.382859 -131.654143 -229.612108    5.928773 -124.652944 -261.050227    2.700557  -86.996199 -256.966852    3.013530  -90.264143 -250.621678    4.526998 -110.538607 -254.856323    4.155404 -106.363852 -257.188031    4.040565 -105.320194 -252.422041    4.031008 -103.922049 -261.762163    3.698028 -101.634827 -245.842478    4.350363 -106.640230 -254.975536    4.146058 -106.237298 -253.367288    3.974523 -103.224642 -257.111955    3.731317 -100.916184 -259.469039    3.236083  -94.386903 -262.398018    3.081109  -92.884739 -257.944902    2.934026  -89.501368 -262.417992    2.488676  -84.289573 -262.302938    2.662159  -86.763790 -244.006437    4.996846 -115.456055 -258.253138    3.283432  -94.653212 -247.295470    4.997887 -116.392901 -250.235889    4.324185 -107.491352 -247.661892    4.425509 -108.260657 -252.164592    3.624356  -97.902331 -236.747290    5.256170 -116.903452 -234.469078    5.422734 -118.656005 -226.571098    5.711233 -120.624081 -225.055372    5.786133 -121.266914 -254.402452    2.474090  -81.714082 -247.458141    4.917954 -115.060322 -243.313936    5.048623 -115.757296 -250.121500    4.431167 -108.735571 -240.017743    5.091956 -115.481066 -255.531592    3.085406  -90.936532 -254.332483    3.940522 -102.879207 -256.585789    3.611572  -98.807994 -249.320567    4.302561 -106.780259 -245.643879    4.470882 -108.095068 -250.318065    4.021131 -102.850013 -255.177918    3.531167  -97.345327 -251.259030    3.818435 -100.313866 -253.704761    3.336733  -93.932368 -249.647430    3.025705  -88.310980 -248.214105    3.489487  -94.574333 -246.647469    4.256100 -105.230306 -246.746892    3.665103  -96.716655 -258.273064    2.202723  -78.955279 -248.186241    2.995923  -87.451290 -251.137542    1.954374  -73.285774 -241.877288    5.694578 -124.921289 -237.660384    5.477625 -120.627591 -231.398141    6.122286 -128.163624 -241.471004    4.857075 -112.722720 -229.207830    5.694302 -121.392453 -243.422867    4.481001 -107.552866 -244.764471    4.005092 -101.034984 -234.341469    4.792118 -109.487394 -237.906334    4.342519 -103.981240 -236.452256    4.726485 -109.131486 -239.267028    4.001487  -99.442921 -239.516623    5.220435 -117.247854 -240.392705    5.371646 -119.740534 -236.246334    5.543892 -121.037850 -247.807735    4.433733 -108.347459 -243.077460    4.857245 -113.062019 -234.388989    4.847599 -110.329673 -231.460876    5.417040 -117.766067 -234.622302    5.095392 -114.033478 -231.193736    6.101310 -127.661528 -231.748034    5.521770 -119.415480 -227.311045    5.926333 -123.998987 -223.509133    6.323998 -128.706302 -223.185866    6.839242 -136.078431 -229.643786    6.219401 -128.969398 -238.240003    5.473680 -120.707460 -238.222323    5.913672 -127.009287 -236.994114    6.209339 -130.962562 -241.148191    5.068415 -115.615535 -237.230084    5.289158 -117.741405 -240.023596    4.751224 -110.756709 -226.586263    6.800052 -136.520301 -214.969699    6.926316 -135.058579 -228.636832    6.575417 -133.895936 -229.761144    6.112408 -127.495474 -222.320784    6.495663 -130.988794 -218.579035    6.807294 -134.403807 -233.783711    5.628374 -121.610972 -230.904061    5.462477 -118.364534 -222.139061    6.660398 -133.158848 -222.874766    6.303783 -128.169807 -216.449350    6.819564 -133.881891 -222.501471    5.977583 -123.360136 -206.787064    6.838837 -131.493157 -252.272783    2.721433  -84.672476 -246.644866    2.685771  -82.548778 -243.514692    4.305502 -105.351140 -249.951537    3.873143 -100.894685 -248.259418    3.869012 -100.408321 -246.831941    3.844340  -99.633123 -254.139761    3.300693  -93.857426 -251.567297    3.164340  -91.124423 -241.094163    4.252628 -103.867228 -247.044497    3.989911 -101.683116 -243.071790    4.270666 -104.559400 -249.343643    3.284460  -92.143896 -251.230883    3.317523  -93.215335 -254.393887    2.841393  -87.199964 -258.096584    2.569936  -84.269001 -255.039472    2.596887  -83.771286 -252.007333    2.659234  -83.778078 -250.167495    2.364149  -78.945127 -258.291044    2.023702  -76.357039 -259.361027    2.219027  -79.491794 -251.797921    2.300062  -78.578978 -253.683361    1.996444  -74.706062 -236.050532    5.166528 -115.690900 -240.030493    4.533023 -107.660922 -238.950497    4.687484 -109.598832 -252.201672    2.952372  -88.203231 -243.008432    4.017570 -101.062540 -235.913725    4.495656 -105.975810 -241.244892    4.704554 -110.477422 -243.236545    3.967350 -100.391574 -231.853637    5.136592 -114.093010 -224.265597    5.532715 -117.675177 -250.123817    2.341422  -78.743071 -244.938367    3.282056  -90.942596 -240.152788    4.217860 -103.150541 -243.712744    3.640059  -95.800728 -215.567298    6.031113 -122.155653 -227.503874    5.215518 -113.695372 -226.420243    5.101065 -111.720562 -223.985875    5.378665 -115.088771 -218.148769    5.749304 -118.804901 -219.647640    5.265256 -112.213674 -217.258913    5.451560 -114.223422 -242.510772    3.407387  -91.774610 -246.903306    2.339897  -77.619732 -240.069648    2.831461  -82.761567 -241.878020    4.504779 -107.488402 -238.652168    4.620428 -108.294577 -247.684486    3.309150  -91.880690 -248.187125    3.727009  -98.019217 -242.452169    4.028284 -100.802271 -244.189322    3.973322 -100.437548 -246.775764    3.738483  -97.903553 -246.247825    3.134865  -88.919023 -242.082686    3.566866  -93.960538 -242.750984    3.251576  -89.587328 -235.423395    4.132252 -100.245343 -239.971924    3.760915  -96.151555 -253.564164    1.761605  -71.211538 -242.740859    1.893264  -69.986157 -245.970901    1.591024  -66.563209 -240.870876    3.016608  -85.675942 -244.229688    2.195143  -74.805296 -241.286825    2.484765  -78.121294 -240.682461    2.743773  -81.716696 -230.236795    5.837465 -123.723758 -222.711814    5.715882 -119.858993 -220.700866    6.073587 -124.469368 -235.798887    4.683972 -108.614285 -232.754444    5.121827 -114.095117 -229.466920    5.078061 -112.567426 -231.189612    4.704252 -107.621445 -215.044359    5.577709 -115.727016 -235.212675    4.296813 -102.581864 -232.864128    4.516403 -105.131565 -235.098753    3.942924  -97.407204 -229.937417    4.499205 -104.001461 -229.164684    4.714612 -106.919293 -225.926967    4.794582 -107.151104 -229.442926    4.355225 -101.775938 -219.329403    4.762865 -104.837122 -232.376124    3.548447  -90.942194 -235.981291    5.045817 -113.769542 -238.498686    4.546785 -107.332732 -231.925906    4.839183 -109.586299 -235.784610    4.242634 -102.060937 -227.911861    5.055165 -111.541313 -209.131618    6.800296 -131.555027 -214.217930    6.479653 -128.346607 -221.977181    5.183792 -111.721777 -209.875680    5.708678 -115.890268 -232.626007    4.992367 -112.098677 -232.291427    4.456752 -104.316042 -219.797793    6.060934 -123.832645 -224.034109    5.465139 -116.397200 -209.124630    6.528932 -127.639107 -210.001456    6.514077 -127.698485 -226.705023    5.236162 -113.878335 -225.951562    5.843707 -122.478549 -220.458055    6.292164 -127.414808 -214.576696    6.206911 -124.523492 -224.315359    6.030730 -124.769930 -230.970523    5.698252 -121.888890 -231.219088    5.325946 -116.552236 -216.682807    6.301389 -126.527486 -210.237273    6.810125 -132.090605 -222.421693    6.051859 -124.594410 -213.815580    6.526326 -129.038934 -215.354151    6.230174 -125.159216 -226.131529    5.307916 -114.821718 -212.927144    6.563408 -129.152414 -216.627347    5.761936 -118.582630 -217.427872    5.295538 -112.042462 -203.383378    6.505153 -125.645323 -209.915406    6.132229 -122.269724 -204.573180    6.474539 -125.673348 -201.177760    6.653861 -127.221130 -201.768165    6.661563 -127.544373 -244.367454    2.835455  -84.099829 -238.877103    4.055086 -100.419956 -244.610994    3.754980  -97.670939 -244.721390    3.504296  -94.119493 -246.378181    2.834400  -84.859640 -249.665512    3.028650  -88.606005 -241.836455    3.310196  -90.491260 -237.390657    4.021496  -99.419299 -241.947854    3.683892  -95.775571 -243.846416    3.370358  -91.877119 -244.251081    2.928956  -85.505559 -246.574436    2.844262  -84.991562 -247.390533    2.582131  -81.461337 -250.011585    2.206573  -76.671883 -245.596900    2.363118  -77.668295 -254.109903    1.768428  -71.494153 -247.684504    1.503286  -65.817688 -244.211456    2.369176  -77.421004 -247.409747    1.600309  -67.195571 -246.662077    2.194952  -75.627043 -245.777561    2.728982  -83.166053 -242.236072    2.541723  -79.438885 -245.573470    1.893503  -70.975678 -220.330924    5.226716 -112.140221 -226.862635    4.998086 -110.686768 -230.452697    4.336890 -102.117770 -231.471315    4.671562 -107.255648 -234.752720    4.113687 -100.126049 -240.434793    3.107585  -87.157713 -237.706195    3.753999  -95.757918 -228.722343    4.445156 -103.222838 -234.184940    4.147093 -100.454347 -233.718619    4.422099 -104.298086 -236.042039    3.664175  -93.988841 -223.002130    4.876505 -107.846611 -241.055507    2.318369  -75.889262 -236.643340    2.960726  -83.965412 -235.773514    3.763452  -95.338144 -234.612717    3.551659  -91.950478 -206.340113    6.133571 -121.066929 -219.526425    4.923341 -107.212419 -219.985792    4.888961 -106.861628 -212.848665    5.370418 -111.825398 -209.650615    5.056195 -106.379717 -236.901567    2.356699  -75.006945 -235.626821    3.333048  -88.748763 -230.100411    2.893835  -80.844261 -236.890166    2.820194  -81.704278 -235.111953    2.487783  -76.419028 -237.891263    4.060112  -99.942616 -229.814618    4.001157  -96.792504 -229.215165    4.226971  -99.867417 -240.110809    3.610168  -94.085804 -239.369638    3.230663  -88.368125 -235.505255    3.540391  -91.726586 -230.852804    3.641184  -91.858122 -234.064656    3.883317  -96.415086 -232.927630    1.953165  -68.056581 -236.192107    2.222835  -72.911860 -243.452685    1.881507  -70.079503 -238.874646    1.901164  -69.041611 -239.983299    1.407498  -62.227700 -237.335051    1.594916  -64.142077 -237.776630    2.334212  -75.012965 -235.335719    2.972565  -83.539724 -239.998322    2.681464  -80.683152 -238.707078    2.212141  -73.561792 -234.875238    3.068521  -84.746673 -234.657607    2.646313  -78.600679 -230.673664    2.452203  -74.672771 -224.590196    5.251449 -113.672537 -214.618089    5.684288 -117.117027 -227.098130    5.079677 -111.861789 -224.419848    4.737907 -106.180154 -224.967108    4.707546 -105.939650 -212.586851    4.960319 -106.101682 -213.243820    5.111132 -108.471508 -218.617024    5.048376 -109.061175 -209.714530    5.437638 -112.178142 -206.872778    5.547633 -112.964283 -226.507734    4.539000 -103.654013 -227.190837    4.633043 -105.271779 -229.445102    4.095262  -98.106585 -231.151003    3.945510  -96.621520 -227.248786    3.535917  -89.320725 -222.388523    4.199879  -97.551051 -223.434494    4.305956  -99.395210 -213.719341    4.396167  -97.964324 -221.735831    4.023712  -94.823081 -223.071063    3.433969  -86.671004 -227.230791    2.444835  -73.543887 -220.504671    3.046338  -80.355107 -230.610723    4.628475 -106.227357 -229.246453    4.274427 -100.752132 -226.344631    4.211462  -98.977939 -222.374266    5.015795 -109.437507 -219.058724    4.897845 -106.760285 -210.578745    6.134534 -122.318008 -215.093027    5.464396 -113.863799 -220.743527    4.923953 -107.696907 -224.166159    4.262834  -99.245788 -202.508360    5.572960 -111.888569 -211.678559    5.171031 -108.624194 -223.283883    4.868681 -107.699981 -223.702061    4.257745  -98.978191 -216.237838    5.678669 -117.334314 -206.286736    6.020905 -119.502941 -208.819096    6.229951 -123.268911 -218.704166    5.755973 -119.201526 -220.326329    5.621984 -117.774346 -209.456207    6.068087 -121.137138 -211.846929    5.919281 -119.700621 -215.931892    5.261262 -111.274383 -207.482802    5.802107 -116.606338 -201.099327    5.973801 -117.362943 -202.635458    6.030419 -118.574682 -198.682035    6.030600 -117.455810 -195.936352    6.283276 -120.378681 -202.974854    6.072282 -119.352550 -207.137817    5.688485 -115.053360 -203.588010    6.023944 -118.866310 -201.221245    6.022726 -118.203694 -197.208073    6.288275 -120.879796 -195.559965    6.376918 -121.661943 -236.331434    3.278573  -88.286181 -230.860037    3.624838  -91.822617 -236.350457    3.116141  -86.112351 -231.336190    3.442420  -89.402714 -237.242965    3.593636  -93.258628 -241.841574    3.070495  -86.981335 -238.237973    3.274230  -88.860065 -239.474648    2.413815  -76.763607 -238.774737    2.765897  -81.646424 -241.801635    1.928832  -70.349638 -240.733734    1.402847  -62.429555 -235.355220    2.301997  -73.950054 -239.279438    1.597189  -64.895006 -232.510265    2.702327  -79.005154 -235.358033    2.703272  -79.859279 -236.356505    2.268593  -73.813105 -236.121052    1.962970  -69.350952 -221.879071    4.483407 -101.845134 -227.022156    4.025999  -96.661563 -228.636653    4.120700  -98.501262 -231.503970    3.302860  -87.472915 -229.164434    3.900635  -95.471821 -226.296424    4.072085  -97.145305 -228.740490    3.458477  -88.950780 -223.015196    3.974508  -94.801545 -218.134453    4.353327  -98.902178 -230.968043    2.469222  -75.252243 -226.932325    3.058600  -82.648717 -228.499452    3.014242  -82.417253 -227.757157    3.588506  -90.530893 -205.884995    5.397030 -110.279194 -214.366264    4.701484 -102.560599 -216.765354    4.566197 -101.298280 -206.493603    4.952675 -104.003771 -210.151997    4.453111  -97.789558 -200.965931    4.896099 -101.676113 -207.648498    4.427723  -96.745589 -234.884968    1.685698  -64.853251 -224.134318    3.357439  -85.874626 -228.892038    2.711861  -77.890018 -230.393213    3.027943  -82.882434 -223.109855    4.048815  -95.615815 -232.472810    3.550875  -91.055839 -225.541194    3.750355  -91.957408 -229.236816    3.688363  -92.179438 -230.853647    3.168908  -85.095982 -227.962056    3.352768  -86.903155 -228.327195    3.394174  -87.698648 -229.107939    2.054285  -68.484475 -226.244036    2.350809  -71.944389 -231.754932    2.286697  -72.632440 -235.111281    2.077005  -70.562666 -233.398094    2.113435  -70.640214 -232.514106    1.791652  -65.677641 -228.233547    2.861332  -79.957940 -234.400270    2.633989  -78.434628 -226.505505    2.867389  -79.518631 -224.660734    2.471198  -73.321480 -215.793187    5.277093 -111.535090 -217.011373    4.699925 -103.548244 -218.831114    4.326178  -98.687705 -215.211942    4.328151  -97.706483 -212.885700    4.719398 -102.704044 -211.432065    4.325489  -96.573616 -204.709230    4.928602 -103.378796 -206.521518    5.026138 -105.316003 -208.326577    5.089222 -106.736508 -199.007881    5.420193 -108.868121 -221.096417    4.363020  -99.631924 -222.282993    3.815208  -92.063297 -222.985273    3.845987  -92.772699 -222.764369    3.812538  -92.336630 -224.394867    3.818767  -92.836416 -226.580904    3.415163  -87.580378 -224.630391    3.391509  -86.737148 -216.885052    3.809392  -90.370690 -219.087114    3.948492  -93.004125 -212.914398    3.746165  -88.363141 -221.365291    2.749358  -76.327061 -216.445057    3.183682  -81.217884 -209.628636    4.714741 -101.428420 -214.941692    4.327683  -97.349587 -219.913874    4.588088 -102.644448 -220.740056    4.237133  -97.765874 -213.393541    4.989772 -106.530057 -207.563481    5.534502 -112.787681 -214.908590    4.562042 -100.790594 -215.167572    4.918356 -106.053845 -217.648123    4.134235  -95.479733 -217.144113    4.034531  -93.961183 -196.039951    5.414145 -107.813286 -207.404449    4.978765 -104.669383 -213.231879    4.865920 -104.825140 -209.476632    5.520092 -113.165498 -208.819899    5.605182 -114.273475 -204.398796    5.410276 -110.236858 -202.158366    5.574909 -111.910513 -197.276875    5.907453 -115.353576 -200.469046    5.588236 -111.586655 -200.509370    5.506952 -110.385942 -191.256658    5.965244 -114.487531 -192.604163    5.775510 -112.096924 -199.395250    5.654917 -112.319885 -194.571633    5.781354 -112.803989 -191.942274    5.965361 -114.700739 -230.362534    2.955708  -81.974187 -232.725546    3.051928  -84.098106 -230.856849    2.597749  -76.974968 -224.331487    3.218736  -84.061269 -229.179046    2.531607  -75.508889 -219.865626    3.118501  -81.352861 -230.441755    2.154965  -70.423618 -233.409691    1.795620  -66.074590 -225.949531    2.782153  -78.270873 -231.439458    2.045069  -69.168263 -229.380946    2.342541  -72.935123 -224.962134    2.635094  -75.909670 -220.906906    3.880525  -92.838859 -225.300877    3.496748  -88.527418 -219.023146    3.622190  -88.566706 -222.382070    3.052411  -81.255716 -220.710962    3.377685  -85.454138 -214.212541    4.031121  -93.116536 -211.458879    4.004153  -91.940247 -202.461994    4.940976 -102.710963 -199.230366    4.880987 -100.973352 -209.481046    4.161218  -93.378594 -201.805279    4.502805  -96.184014 -206.501553    4.178299  -92.818675 -224.757813    2.001107  -66.585685 -227.596905    1.857263  -65.293161 -220.923338    3.261928  -83.619743 -220.468780    3.743333  -90.461812 -224.061070    3.342599  -85.698671 -222.471047    2.957710  -79.720851 -219.679735    3.330588  -84.332352 -220.401047    2.414555  -71.301927 -226.504341    2.307129  -71.485589 -223.451900    2.734933  -76.810223 -217.866531    2.783592  -75.925011 -219.447257    2.418928  -71.147180 -207.279166    4.876092 -103.335853 -212.023905    4.471520  -98.839948 -208.918997    4.456050  -97.758355 -206.709741    4.447272  -96.989796 -202.334683    4.868356 -101.840595 -198.492840    5.120836 -104.387740 -210.777093    3.998201  -91.640865 -215.185624    2.952237  -77.617281 -215.499844    3.931753  -91.850648 -214.309614    3.248252  -81.646657 -218.225317    3.608907  -87.994300 -216.378508    3.692509  -88.743640 -222.135396    3.250957  -83.942593 -218.918214    3.160789  -81.754984 -211.520923    3.584075  -85.632970 -210.076460    3.566851  -84.971929 -213.778974    2.979886  -77.577396 -210.679330    3.840364  -89.117348 -205.849549    4.572586  -98.320826 -208.569163    4.383870  -96.398187 -208.011411    3.973836  -90.336319 -210.528678    4.531891  -99.159847 -208.397827    5.054068 -106.105414 -200.621675    5.170640 -105.686336 -209.797870    3.990786  -91.