<?xml version="1.0"?>
<VTKFile type="UnstructuredGrid" version="0.1" byte_order="LittleEndian">
    <UnstructuredGrid>
        <Piece NumberOfPoints="3172" NumberOfCells="14894">
            <Points>
                <DataArray type="Float32" NumberOfComponents="3" format="ascii">
                    -31.476796   2.149140 100.803992 -34.688943   2.788712  97.513667 -33.344902   0.000323  99.656490 -35.454748   0.062052  96.947175 -33.063231  -3.378159  99.182065 -34.802252   5.077390  95.481493 -31.116099  -5.118879  99.791950 -29.098956  -5.055885 100.823112 -31.163268  -2.747637 100.831304 -30.278672  -0.407738 101.662330 -28.214469  -2.973640 101.932346 -25.978776  -3.094094 102.176847 -29.969758  -6.941266  99.089394 -30.737606  -5.439427  97.949256 -32.842022   3.433243  99.363110 -33.020994   6.868094  96.347479 -33.621949   4.985835  97.574069 -31.888819   6.035070  98.540653 -30.589928   4.595347 100.401952 -28.092429   2.618236 102.055305 -28.864548   2.748774  99.780535 -30.539419   2.942140  99.086781 -27.886504   5.437103 100.960726 -27.070721   0.791754 100.826043 -26.918672  -0.472715 102.551104 -24.237493  -1.715276 102.377625 -24.629199   1.459207 102.463207 -25.531452   4.440200 101.688269 -29.205257   7.090920  99.332567 -26.143300   7.131640 100.012432 -30.856661   8.201864  96.988193 -33.043921   3.398792  96.404321 -31.699374   1.615666  97.570109 -29.720310   0.815136  99.763224 -32.371736   4.873908  95.764067 -36.001678   2.885032  94.688065 -33.515319   1.602654  95.277129 -33.256718   3.696764  94.501264 -32.317452  -6.047869  98.129696 -34.698047  -2.124016  97.770598 -34.328523  -4.721514  96.772303 -30.831981  -1.212448  98.714739 -32.620655  -0.748946  97.141617 -31.065326  -3.629849  97.261932 -36.682300   0.516924  93.428246 -36.138127  -2.231123  94.772967 -34.423626  -0.554465  94.904487 -32.717811  -2.722879  96.142418 -34.756526   3.352421  93.361951 -36.373226   3.094345  92.483844 -33.990391   7.001631  94.043792 -35.490364   5.043889  93.259776 -33.485554   5.175587  92.841765 -22.637536   3.076817 101.713028 -23.633434   5.807413 100.732068 -29.248630  -4.245359  98.214916 -28.065987  -3.176583  99.503211 -27.701326  -7.000950  99.908783 -27.339934  -4.736850  98.698335 -26.675269  -5.061941 101.354490 -28.150590  -3.188637  96.918177 -28.068386  -0.939163  99.691248 -27.237281   0.887064  99.358123 -26.499501  -2.870296 100.171497 -24.630951  -2.469463 100.877782 -24.177161  -4.396419 101.584392 -23.259671  -1.335236 100.521490 -21.799607  -0.113142 101.883994 -22.448168  -3.099115 101.646026 -30.634499  -5.735610  96.215014 -24.646290  -6.781358 100.230819 -30.856803  -8.201260  96.988193 -28.292369  -8.795753  97.791146 -28.559065  -6.291139  97.225768 -25.543794  -8.740955  98.349100 -31.285608   6.362790  94.970557 -31.836541   8.796383  94.486030 -32.359574   6.648846  92.072263 -32.584858   8.741631  91.782895 -21.179150   5.529303  99.978815 -30.712732   4.284883  97.897574 -30.942153   5.687498  96.806697 -28.899279   4.429634  98.672110 -30.826189   3.821215  95.731989 -23.722588   1.184914 100.003574 -27.177865   2.799421  99.768066 -25.994103   2.164960 100.370559 -28.274709   1.444087  98.235277 -28.682623   2.799896  97.275028 -27.214070   4.603237  98.741945 -25.524716  -0.329174  99.795271 -26.415016   1.361336  98.787732 -24.639346   3.757123  99.655990 -23.119032   7.960617  98.783181 -24.869048   5.804349  98.223120 -27.984905   8.745708  97.975701 -25.549375   8.987537  98.021842 -20.327185   2.464898 100.875201 -22.824633   5.605446  98.202460 -18.741062   4.306759  98.959182 -33.324541  -7.071381  95.511856 -32.061809  -8.732268  94.188474 -34.255099  -7.067077  92.507270 -29.874762  -4.461091  95.576246 -32.277183  -8.973732  91.748146 -28.599837   6.231158  96.876594 -26.730842   6.255545  97.264246 -29.183362   7.563660  94.364846 -27.621547   8.437940  95.448334 -29.127936   9.933549  95.134336 -26.354531  10.150936  95.957461 -31.297600   2.016541  95.462923 -31.972579  -0.035153  95.571900 -32.361390   0.766106  94.438457 -28.671417  -1.420726  97.603088 -30.057914   0.152157  96.355127 -29.370874   4.857501  94.190694 -31.497717   4.527603  93.327318 -30.394337   2.900607  94.121312 -34.276383   1.497444  93.040162 -31.924373   2.163592  93.245553 -33.263125   3.368876  92.056697 -34.593247   2.338277  90.895132 -36.694903   1.714978  90.759231 -34.614956  -0.398020  92.464581 -32.155501  -5.013185  94.610994 -34.005121  -2.814798  94.757422 -35.090043  -5.364905  94.229196 -30.760338  -1.504515  95.687200 -31.332954  -3.541019  94.423186 -29.345612  -2.601053  95.289749 -36.759754  -1.456623  91.514772 -36.372065   0.119748  88.293238 -35.950953  -4.370926  91.901431 -34.154134  -2.376289  92.361546 -35.090127  -5.802071  89.991837 -36.121073  -3.139008  89.102798 -32.492269  -1.001939  93.609986 -31.590337   0.473311  92.886567 -35.909799   4.392164  90.644586 -34.525783   6.780778  91.021263 -36.092270   3.090181  88.923100 -33.113099   5.035892  90.793323 -35.350949   0.137156  85.948689 -21.987472   3.663046  99.240072 -21.396553   4.442820  97.681098 -27.758185  -4.499807  96.160833 -26.514648  -2.192470  98.166330 -26.312786  -5.959136  97.421376 -26.125673  -3.978583  97.149297 -24.463718  -4.054608  99.240882 -23.652073  -5.875004  98.377661 -27.366975  -2.675180  95.593114 -26.775141  -0.542828  97.446923 -27.627580   0.674207  96.391435 -24.033552  -0.826972  98.090462 -24.310004  -2.402852  98.521794 -22.584411  -2.615742  99.415156 -21.695287  -5.466410 100.277631 -21.630169  -1.228450  99.696465 -21.673629   0.872697  98.972722 -20.317302   2.118552  98.530872 -19.531326  -0.134317 100.701698 -20.378199  -2.737770 100.828539 -20.119858  -2.619258  98.671039 -18.976443  -4.463964  99.083067 -30.681810  -6.875906  93.855206 -28.402412  -5.574486  95.087162 -28.917711  -7.750422  94.627149 -22.773674  -8.175462  98.400296 -26.459021  -8.305474  95.753697 -27.855505  -9.014885  93.669718 -29.128108  -9.932975  95.134336 -26.229623 -10.272453  95.683228 -30.161697 -10.142022  92.426831 -31.200041  -9.588874  90.288951 -20.083569  -7.104426  97.879657 -23.529513  -9.807208  96.204533 -27.092571  -6.459661  95.062041 -24.970170  -7.231299  96.030915 -32.829344   8.176018  89.023285 -30.387354   7.377636  92.390868 -29.877824  10.272976  92.281190 -30.754622   5.697305  91.265369 -31.844980   6.950358  89.678418 -29.954437   6.889608  90.104545 -30.587039   9.806919  89.621947 -24.145085   9.595958  96.849957 -20.036684   7.019123  97.932712 -21.553583   9.179954  96.122494 -28.541486   4.282934  96.298612 -28.742701   2.732143  95.266160 -24.016606   1.982839  97.808879 -25.798783   3.158985  98.032475 -26.580537   2.175605  96.318937 -26.517979   4.264263  96.961635 -25.714409   0.630228  97.452800 -23.211863   4.001454  97.536378 -24.680723   5.121905  96.418559 -23.475389   7.473546  96.772862 -26.516439   6.714495  94.617770 -25.361032   7.665030  95.988300 -18.085438   1.225593  99.441988 -17.825894   5.821694  96.657600 -16.787359   2.894602  97.381835 -22.318425   5.662775  96.109738 -19.151460   3.052167  96.893917 -20.152156   5.584032  96.224409 -21.143051   3.622990  95.916092 -32.999689  -6.159636  92.237015 -31.881617  -6.735260  90.039986 -33.179462  -7.963095  89.378577 -28.715388  -3.538923  94.014191 -30.260855  -4.989742  93.040350 -29.772885  -7.630471  91.915865 -28.412006  -4.633942  92.617213 -30.650319  -9.185944  87.673014 -27.155235   5.165339  94.449718 -27.857280   3.668508  93.672105 -25.740936   8.621566  94.657067 -27.629814   8.498330  93.167570 -28.416551   5.964781  92.770096 -28.513484   7.479492  91.946580 -27.038707  10.893244  93.191876 -27.915741  10.814287  90.286347 -23.928311  10.655620  94.017762 -30.271092   0.497615  94.344395 -28.388486  -1.300911  94.943107 -29.106353   2.203237  93.300582 -26.931082   1.434534  94.355800 -29.697379   3.686118  92.252060 -35.418747   2.734414  86.800617 -34.491867   2.374296  88.233727 -29.765454   4.430559  90.601908 -31.047094   8.859791  87.439341 -29.761142  -1.166998  93.267725 -27.498887  -2.785988  93.061557 -33.216758   3.377653  89.903114 -31.084729   3.383984  91.118686 -34.276544   1.704487  86.727207 -34.262727   0.112054  86.868248 -30.324542   1.455364  91.751117 -32.772893   0.558674  91.472306 -34.195056   0.878369  89.919175 -33.370696   1.060528  88.245629 -33.387949  -1.627834  90.851836 -32.514731  -4.010228  92.595750 -31.014477  -2.448338  92.775237 -33.900093  -1.247858  88.689733 -35.471612  -2.459384  86.758271 -33.286216  -4.298000  90.124620 -34.537350  -5.515547  87.573120 -33.473764  -3.021249  88.186334 -30.549149  -0.921390  91.422018 -34.782499   5.457837  88.077478 -31.743163   4.959602  89.104060 -29.877999   5.443158  89.367559 -33.759207   4.480908  85.273876 -32.567168  -7.070533  86.347945 -33.595361  -4.382255  85.001837 -34.154821   1.578606  84.440475 -34.193197  -1.223092  84.415911 -21.800194   2.418179  96.889247 -26.350152  -4.285798  94.847164 -25.590108  -2.534381  96.613183 -24.536383  -4.546424  96.506458 -21.860514  -5.798847  96.896443 -22.970441  -3.652700  97.987479 -23.469715  -6.093997  95.573031 -26.120559  -1.262675  94.630527 -25.096273  -0.020835  96.024163 -23.934469  -2.310831  96.411388 -22.152794  -0.078539  96.683613 -21.969304  -1.933316  97.221266 -20.917915  -4.116992  97.303877 -19.617617  -0.365363  98.315064 -19.923795   0.667345  97.121402 -18.111488  -1.575738  99.405104 -16.514424  -0.134931  97.663945 -19.804456  -1.854660  96.550031 -16.852027  -3.088581  97.381017 -19.249383  -4.012565  97.102627 -21.318362  -8.859528  96.511766 -20.306165  -5.918893  95.701498 -17.881361  -5.893723  96.660058 -29.646802  -7.898789  89.277769 -29.208353  -8.967810  91.077140 -26.821115  -5.333695  92.358751 -28.266152  -6.770647  92.550619 -26.212724  -7.224089  93.461473 -22.480869  -7.918172  95.045071 -24.934987  -8.534207  94.218553 -27.074252  -8.674021  91.631666 -26.264630  -9.447793  93.1449
[...]
            <PointData>
                <DataArray type="Float32" Name="U0" NumberOfComponents="3" format="ascii">
                    -66.007997  -1.493326 -30.915444 -62.870564  -1.403476 -33.948510 -64.921432  -1.460766 -32.736183 -62.339356  -1.390987 -34.739897 -64.479367  -1.453148 -32.542367 -60.923747  -1.353013 -33.999900 -65.064917  -1.474045 -30.728042 -66.046589  -1.504076 -28.812890 -66.047213  -1.494803 -30.725366 -66.830877  -1.515900 -29.843333 -67.095561  -1.529221 -27.947933 -67.329904  -1.539822 -25.904384 -64.400508  -1.463701 -29.672254 -63.310353  -1.436499 -30.373233 -64.631388  -1.452776 -32.177538 -61.742586  -1.377194 -32.258376 -62.920251  -1.406282 -32.878638 -63.837288  -1.433807 -31.202160 -65.617412  -1.484171 -30.004950 -67.198490  -1.536052 -27.751646 -65.031753  -1.472282 -28.442372 -64.372501  -1.452171 -30.006768 -66.144070  -1.504400 -27.414692 -66.034015  -1.506670 -26.815797 -67.678612  -1.546124 -26.733464 -67.524267  -1.555197 -24.203326 -67.598261  -1.557410 -24.486124 -66.841323  -1.535633 -25.196201 -64.587356  -1.459835 -28.618163 -65.232627  -1.487844 -25.693882 -62.347316  -1.397443 -30.161187 -61.810488  -1.381081 -32.366053 -62.930159  -1.414960 -31.134173 -65.024838  -1.475615 -29.289389 -61.193414  -1.365984 -31.687903 -60.174881  -1.333407 -35.194837 -60.741900  -1.355826 -32.856488 -59.992954  -1.335559 -32.558034 -63.484479  -1.434624 -31.889986 -63.131034  -1.414724 -34.070521 -62.186642  -1.395084 -33.776064 -64.030471  -1.450205 -30.379504 -62.528607  -1.405663 -32.063019 -62.650860  -1.418922 -30.646187 -58.980515  -1.304175 -35.898658 -60.272538  -1.340320 -35.444144 -60.393372  -1.347382 -33.770598 -61.580532  -1.385172 -32.196734 -58.907194  -1.305194 -33.994767 -58.069808  -1.280334 -35.542841 -59.543642  -1.319994 -33.177481 -58.803157  -1.299194 -34.655295 -58.403136  -1.294713 -32.738022 -66.871327  -1.546582 -22.465377 -65.922563  -1.514257 -23.332185 -63.560592  -1.449158 -28.936666 -64.786431  -1.481993 -27.805003 -65.180634  -1.492006 -27.514957 -64.019502  -1.469374 -27.132872 -66.554361  -1.526052 -26.514753 -62.317461  -1.422115 -27.866550 -64.961873  -1.483548 -27.771863 -64.632061  -1.472089 -26.945552 -65.422229  -1.503533 -26.338776 -66.085733  -1.522638 -24.560249 -66.766285  -1.538187 -24.121825 -65.734014  -1.514167 -23.198525 -67.046820  -1.551430 -21.739331 -66.823853  -1.542888 -22.438004 -61.656302  -1.398081 -30.277520 -65.482304  -1.507707 -24.595971 -62.400081  -1.415568 -30.541646 -63.165175  -1.443219 -28.109229 -62.619356  -1.430511 -28.314377 -63.693654  -1.464066 -25.484628 -60.428768  -1.349060 -30.613660 -59.957042  -1.335165 -31.078942 -57.661876  -1.278481 -31.626713 -57.377194  -1.270066 -31.791970 -65.199917  -1.503060 -20.986323 -63.231098  -1.420776 -30.129198 -62.183851  -1.393217 -30.307430 -63.967051  -1.441512 -28.404259 -61.165650  -1.370072 -30.241943 -65.232361  -1.495993 -23.573208 -65.014041  -1.473721 -26.835651 -65.590263  -1.494139 -25.734629 -63.562019  -1.440893 -27.898191 -62.640277  -1.412355 -28.240066 -64.028046  -1.447356 -26.794959 -65.045949  -1.488409 -25.349989 -64.081448  -1.457837 -26.138617 -64.898139  -1.478314 -24.361323 -64.052031  -1.466312 -22.777718 -63.524111  -1.443945 -24.512496 -63.284230  -1.429921 -27.406968 -63.324336  -1.439200 -25.073130 -66.070692  -1.531797 -20.249236 -63.501236  -1.451847 -22.558999 -64.226710  -1.487840 -18.679194 -60.990295  -1.371857 -32.869635 -59.730144  -1.347120 -31.700513 -58.122618  -1.299228 -33.755110 -61.042174  -1.385435 -29.525230 -57.401331  -1.290214 -31.909108 -62.245131  -1.400250 -28.060128 -62.610636  -1.414092 -26.277390 -59.842991  -1.339701 -28.575870 -60.871522  -1.369403 -27.064582 -60.568747  -1.357926 -28.465733 -61.350327  -1.386241 -25.811713 -60.916538  -1.365755 -30.734428 -61.028276  -1.370347 -31.426193 -59.943555  -1.341039 -31.774302 -62.968648  -1.432250 -28.333166 -61.773741  -1.394222 -29.605746 -59.687551  -1.336593 -28.822862 -58.867803  -1.311741 -30.857412 -59.630854  -1.335474 -29.847277 -58.606822  -1.301575 -33.579930 -58.799423  -1.312192 -31.321013 -57.660602  -1.279122 -32.567130 -56.555582  -1.249683 -33.859493 -56.428196  -1.240686 -35.880531 -58.063656  -1.289660 -33.945932 -60.124702  -1.354576 -31.708436 -60.259352  -1.348291 -33.423036 -59.762175  -1.334328 -34.514872 -61.142000  -1.379932 -30.306397 -59.940870  -1.351680 -30.891310 -60.763143  -1.378085 -28.982234 -57.159995  -1.261714 -36.017111 -54.078576  -1.186427 -35.607477 -57.537559  -1.276658 -35.311806 -57.971160  -1.291556 -33.551278 -55.717787  -1.236442 -34.521451 -54.861743  -1.209713 -35.443553 -59.158600  -1.324546 -31.937299 -58.462446  -1.307946 -31.041000 -56.308963  -1.237770 -35.068615 -56.659068  -1.248233 -33.691420 -54.669799  -1.198579 -35.271575 -56.447840  -1.248342 -32.382411 -51.838694  -1.135128 -34.629259 -64.497266  -1.480950 -21.814297 -63.003731  -1.445292 -21.222038 -61.595923  -1.407258 -27.513099 -63.502111  -1.454473 -26.309051 -62.800437  -1.443686 -26.166503 -62.533502  -1.435922 -25.953318 -64.525359  -1.491012 -24.383879 -63.706124  -1.472574 -23.625781 -61.047662  -1.392267 -27.101234 -62.809911  -1.431693 -26.511020 -61.800354  -1.400756 -27.282240 -63.411380  -1.456018 -23.903456 -63.831017  -1.469572 -24.204584 -64.680515  -1.495279 -22.550577 -65.520140  -1.516770 -21.744955 -64.943741  -1.500163 -21.600626 -64.244885  -1.480341 -21.590768 -63.820746  -1.472262 -20.248716 -65.909522  -1.529115 -19.551285 -66.038591  -1.529709 -20.425192 -63.968520  -1.483124 -20.172007 -64.371267  -1.496282 -19.113271 -59.406263  -1.344590 -30.341827 -60.575492  -1.380808 -28.143302 -60.142802  -1.369446 -28.679235 -63.735648  -1.474472 -22.827232 -61.215150  -1.404087 -26.345984 -59.230201  -1.351036 -27.690495 -60.633064  -1.379898 -28.927852 -61.153609  -1.402844 -26.168606 -58.050011  -1.314251 -29.916124 -56.008752  -1.260320 -30.892820 -63.231454  -1.468316 -20.228579 -61.645724  -1.422319 -23.579540 -60.550743  -1.385340 -26.911316 -61.472943  -1.414919 -24.903111 -54.744440  -1.205983 -32.036289 -57.961098  -1.290632 -29.725933 -57.844379  -1.288691 -29.170475 -56.893998  -1.264942 -30.114345 -55.374783  -1.224378 -31.124378 -55.779839  -1.239521 -29.319087 -55.307838  -1.225237 -29.856209 -62.201341  -1.414797 -23.715127 -63.238018  -1.456324 -19.852020 -61.503829  -1.406283 -21.247718 -61.700595  -1.388284 -28.056834 -60.720791  -1.366434 -28.284387 -63.134204  -1.439816 -23.808116 -63.350417  -1.436181 -25.484786 -61.721707  -1.397161 -26.243973 -62.328053  -1.408655 -26.130580 -62.805483  -1.430401 -25.470392 -62.868211  -1.434686 -22.974577 -61.801118  -1.401985 -24.345372 -62.131685  -1.414646 -23.129775 -60.082170  -1.353581 -26.051227 -61.385453  -1.388984 -24.926288 -64.697080  -1.503099 -18.128608 -62.020366  -1.433479 -17.765009 -62.719303  -1.456338 -16.842456 -61.500265  -1.403737 -22.068397 -62.251459  -1.436582 -19.103413 -61.607016  -1.414900 -19.997286 -61.316864  -1.405439 -20.995606 -57.861786  -1.297273 -32.535476 -55.764755  -1.250442 -31.477130 -55.136888  -1.231041 -32.745541 -59.546134  -1.352059 -28.394430 -58.623075  -1.325335 -29.896168 -57.555301  -1.302963 -29.487057 -58.214706  -1.321691 -28.121347 -53.509432  -1.200810 -30.354991 -59.928410  -1.348529 -26.700830 -59.193260  -1.330606 -27.405732 -60.111880  -1.356589 -25.262193 -58.694028  -1.316100 -27.066547 -58.325078  -1.305614 -27.878964 -57.533788  -1.285333 -27.932600 -58.707971  -1.318314 -26.444757 -55.935198  -1.248608 -27.280951 -59.492689  -1.348080 -23.478907 -59.852862  -1.345796 -29.788662 -60.425698  -1.370137 -28.040416 -58.847344  -1.321631 -28.631481 -59.850286  -1.353535 -26.581777 -57.842078  -1.292940 -29.155394 -52.643524  -1.151924 -34.634888 -54.014139  -1.188241 -33.758190 -56.264322  -1.253890 -29.196532 -53.227603  -1.174665 -30.315647 -58.828538  -1.325751 -29.335454 -58.630843  -1.332106 -27.210994 -55.604344  -1.229247 -32.518623 -56.763189  -1.263557 -30.483767 -52.577352  -1.154703 -33.566309 -52.717922  -1.159997 -33.589876 -57.373171  -1.283485 -29.804657 -57.112508  -1.271056 -32.163464 -55.629081  -1.230142 -33.511680 -54.030074  -1.193610 -32.716521 -56.527521  -1.258010 -32.799717 -58.198429  -1.305113 -32.024556 -58.364098  -1.312370 -30.557412 -54.461890  -1.205383 -33.276940 -52.620289  -1.156559 -34.805617 -55.840338  -1.245003 -32.763151 -53.407249  -1.181766 -33.984486 -53.986239  -1.197513 -32.909683 -57.067588  -1.279822 -30.073440 -53.853021  -1.180605 -33.964955 -54.834369  -1.213053 -31.071482 -55.082553  -1.223816 -29.277171 -51.178107  -1.119976 -33.006365 -52.240280  -1.161429 -32.136493 -50.947492  -1.123690 -33.055298 -50.392683  -1.102485 -33.451052 -50.378490  -1.105008 -33.552511 -62.250161  -1.426887 -21.660658 -60.336718  -1.380970 -26.157899 -62.014225  -1.421654 -25.411908 -61.916076  -1.426293 -24.440019 -62.286977  -1.441979 -21.902301 -63.321567  -1.463382 -22.932714 -61.027132  -1.408028 -23.444782 -60.118518  -1.369548 -25.873213 -61.441275  -1.401399 -24.879165 -61.813990  -1.421200 -23.821668 -62.060419  -1.426450 -22.062254 -62.580485  -1.443566 -21.930552 -62.667608  -1.451788 -20.966334 -63.620285  -1.472905 -19.637283 -62.474867  -1.442310 -19.904086 -64.669518  -1.504115 -18.220675 -62.997294  -1.466572 -16.653551 -61.936424  -1.433255 -19.846928 -62.736197  -1.462480 -17.044964 -62.473761  -1.450798 -19.362981 -61.932266  -1.435468 -21.445859 -61.143024  -1.417849 -20.413287 -62.058434  -1.446331 -18.093091 -55.037593  -1.241605 -29.367282 -56.757168  -1.285872 -28.976860 -57.965917  -1.321907 -26.616195 -58.156542  -1.322628 -28.029981 -59.022887  -1.351276 -26.081434 -60.528599  -1.398765 -22.534811 -59.746906  -1.373194 -24.891482 -57.282217  -1.306219 -26.931549 -58.727580  -1.344299 -26.179379 -58.510233  -1.335343 -27.238211 -59.147775  -1.360220 -24.415409 -55.592627  -1.260344 -28.205977 -60.677918  -1.410955 -19.447739 -59.359856  -1.373315 -21.666311 -59.378626  -1.363497 -24.766569 -58.985540  -1.357370 -23.841537 -52.151098  -1.145417 -31.741123 -55.864194  -1.244642 -27.940519 -55.825714  -1.245308 -27.855517 -53.932830  -1.195145 -29.209044 -53.235303  -1.182873 -27.705215 -60.577181  -1.391015 -19.126965 -60.209907  -1.367869 -22.893919 -58.817554  -1.341475 -20.716967 -60.531783  -1.383423 -20.966020 -59.953963  -1.375683 -19.525083 -60.553233  -1.367732 -25.992588 -58.431607  -1.318097 -25.110694 -58.373262  -1.312417 -25.943948 -61.110700  -1.388199 -24.395927 -60.989142  -1.389712 -22.816767 -60.010781  -1.360796 -23.725887 -58.840583  -1.331347 -23.748738 -59.308082  -1.348122 -25.037568 -59.391925  -1.368647 -17.230245 -60.159850  -1.385313 -18.571769 -61.914150  -1.434789 -17.816687 -60.770151  -1.405598 -17.521854 -60.984526  -1.418221 -15.660320 -60.439596  -1.399674 -16.170469 -60.415441  -1.392384 -19.164006 -59.793387  -1.367985 -21.496625 -60.964590  -1.401715 -20.726807 -60.519473  -1.399853 -18.778076 -59.827514  -1.364414 -21.812779 -59.722079  -1.369018 -20.132079 -58.669037  -1.347118 -19.050620 -56.355301  -1.270643 -29.777786 -53.597287  -1.199607 -30.719605 -57.168952  -1.289822 -29.274451 -56.397811  -1.277484 -27.717697 -56.399307  -1.280765 -27.663411 -52.790639  -1.191754 -27.721396 -53.074153  -1.196946 -28.361177 -54.692595  -1.234986 -28.512401 -52.203539  -1.170789 -29.368089 -51.328681  -1.148182 -29.591680 -57.503871  -1.290208 -26.989552 -57.538715  -1.293976 -27.445264 -58.190244  -1.314827 -25.482015 -58.251784  -1.331593 -25.105028 -57.984814  -1.312888 -23.041538 -56.624220  -1.271867 -25.296085 -56.751431  -1.274389 -25.812839 -54.392226  -1.217915 -25.397183 -56.606695  -1.274127 -24.537570 -56.945183  -1.289911 -22.307591 -57.954998  -1.327117 -18.722826 -56.194343  -1.278229 -20.580552 -58.354645  -1.316806 -27.719987 -57.917414  -1.313356 -26.222618 -57.209778  -1.294798 -25.725958 -56.260531  -1.258272 -28.578623 -55.456411  -1.238654 -27.834664 -53.051208  -1.169449 -32.102478 -54.325608  -1.206235 -29.783359 -55.703201  -1.249690 -28.107327 -56.303079  -1.282292 -25.817783 -51.168347  -1.130459 -29.220469 -53.485935  -1.188288 -28.337896 -56.211610  -1.268020 -28.123928 -56.325953  -1.278805 -25.732441 -54.513238  -1.210957 -30.744409 -51.761511  -1.143185 -31.337121 -52.357574  -1.156235 -32.377707 -55.043826  -1.225951 -31.267708 -55.349998  -1.238474 -30.887346 -52.439387  -1.162303 -31.800224 -52.958985  -1.179242 -31.417517 -54.261856  -1.215070 -29.093130 -52.323422  -1.154759 -30.527396 -50.358198  -1.111055 -30.747339 -50.909965  -1.120542 -31.071644 -49.977630  -1.098035 -30.754794 -49.050450  -1.075562 -31.567514 -50.740364  -1.121096 -31.303015 -51.622426  -1.152113 -30.145280 -50.769634  -1.124968 -31.180908 -49.938918  -1.106585 -31.013855 -49.023431  -1.079338 -31.732601 -48.762971  -1.069827 -31.931843 -59.965269  -1.370271 -22.808171 -58.316951  -1.332057 -23.780457 -59.542937  -1.374237 -22.238352 -58.243112  -1.338504 -23.130561 -59.926831  -1.375745 -24.191852 -61.159698  -1.411115 -22.476806 -60.304355  -1.384699 -22.981885 -60.536045  -1.402037 -19.670047 -60.446187  -1.394206 -21.003168 -61.308627  -1.423189 -17.901959 -61.010725  -1.422665 -15.729066 -59.481601  -1.376455 -18.891393 -60.423834  -1.410522 -16.417537 -58.514490  -1.353054 -20.285905 -59.174484  -1.371044 -20.529774 -59.567683  -1.383290 -18.866229 -59.404309  -1.385187 -17.649935 -55.427151  -1.261989 -26.549419 -56.967092  -1.303262 -25.121364 -57.316960  -1.311056 -25.634000 -58.048629  -1.338502 -22.618373 -57.386655  -1.315861 -24.809876 -56.465404  -1.291849 -25.277955 -57.152383  -1.315565 -23.033050 -55.674407  -1.274194 -24.625801 -54.257012  -1.235385 -25.754949 -57.877176  -1.344509 -19.273805 -56.696296  -1.309466 -21.304173 -57.326844  -1.323228 -21.223344 -57.155245  -1.312763 -23.443404 -51.933605  -1.149928 -28.788338 -54.357045  -1.213002 -26.669008 -54.876528  -1.228431 -26.331110 -52.172875  -1.160277 -27.062770 -53.245930  -1.190869 -25.356543 -50.783356  -1.131349 -26.418191 -52.691483  -1.179857 -25.064083 -59.489001  -1.381649 -16.387466 -57.041585  -1.293900 -22.102591 -58.320852  -1.333235 -19.920025 -58.693176  -1.337629 -21.290892 -56.551530  -1.275303 -24.783632 -59.090769  -1.341156 -23.547247 -57.319708  -1.295441 -23.776519 -58.092956  -1.319166 -23.859818 -58.635958  -1.337153 -21.912583 -57.961370  -1.316641 -22.395542 -57.768909  -1.317583 -22.636163 -58.209477  -1.342073 -17.357491 -57.543325  -1.321144 -18.295017 -58.796995  -1.355326 -18.506211 -59.635225  -1.378919 -17.946524 -59.028649  -1.366259 -17.977838 -58.977193  -1.365592 -16.602471 -57.812941  -1.325238 -20.510437 -59.389268  -1.366671 -20.108040 -57.494975  -1.315185 -20.377117 -56.925281  -1.310406 -18.685485 -54.048388  -1.214411 -29.178396 -54.353845  -1.230782 -26.989265 -54.723847  -1.246410 -25.669131 -53.596829  -1.220079 -25.412735 -53.044457  -1.201774 -26.772685 -52.468827  -1.191109 -25.111957 -50.708956  -1.140340 -26.966070 -51.303640  -1.154498 -27.487092 -51.916189  -1.168438 -27.865095 -49.270021  -1.099161 -28.458244 -55.890834  -1.258302 -25.889496 -56.166208  -1.273532 -23.818588 -56.213511  -1.278594 -24.024194 -55.887537  -1.278659 -23.923802 -56.465283  -1.288761 -24.053094 -57.128158  -1.307113 -22.612502 -56.427721  -1.294381 -22.390067 -55.124113  -1.243041 -23.326158 -55.576400  -1.252127 -24.055628 -54.145812  -1.222371 -22.770524 -56.276577  -1.285807 -19.487045 -54.974026  -1.249213 -20.820907 -52.915116  -1.180162 -26.360958 -54.296197  -1.219362 -25.249585 -55.387113  -1.249594 -26.726257 -55.677465  -1.258801 -25.384592 -53.795950  -1.201209 -27.772803 -52.204930  -1.157721 -29.487978 -54.151559  -1.216936 -26.201436 -54.146116  -1.214152 -27.652875 -54.667964  -1.241848 -24.763020 -54.350874  -1.239891 -24.361316 -49.315732  -1.092057 -28.106390 -52.185109  -1.162926 -27.254666 -53.469861  -1.204229 -27.323120 -52.581022  -1.169941 -29.601937 -52.244066  -1.164908 -29.917658 -50.956968  -1.139290 -28.813473 -50.575015  -1.123075 -29.254814 -49.223033  -1.087107 -30.200999 -50.231381  -1.112078 -29.157565 -50.384206  -1.114222 -28.820100 -47.667483  -1.049263 -29.956786 -48.216761  -1.063064 -29.289388 -49.701675  -1.103366 -29.375515 -48.213807  -1.067062 -29.523590 -47.672277  -1.050479 -30.028605 -58.208151  -1.336466 -21.078893 -58.709263  -1.351260 -21.673493 -58.195454  -1.343455 -19.720126 -56.609845  -1.294817 -21.638120 -57.863416  -1.334081 -19.309135 -55.378978  -1.267564 -20.890894 -58.162654  -1.346407 -17.921067 -58.949588  -1.370646 -16.730914 -56.769476  -1.308585 -20.075050 -58.253808  -1.353644 -17.588910 -57.579554  -1.336842 -18.627391 -56.343125  -1.303266 -19.440368 -55.206791  -1.264210 -24.076094 -56.360851  -1.296240 -22.902799 -54.517850  -1.250401 -22.923449 -55.555079  -1.281557 -20.910970 -55.266846  -1.268985 -22.039843 -53.431942  -1.220139 -24.139188 -52.581822  -1.199136 -23.829065 -50.961551  -1.133221 -26.709313 -50.166541  -1.117721 -26.230316 -52.930654  -1.188034 -24.148641 -50.899693  -1.137310 -24.913155 -52.269346  -1.173737 -23.992196 -56.897294  -1.318000 -16.848434 -57.486112  -1.332650 -16.510395 -56.053968  -1.274315 -21.487997 -55.808232  -1.262825 -23.368045 -56.772224  -1.291848 -22.069772 -56.305257  -1.288486 -20.433714 -55.452761  -1.264245 -21.697091 -55.868243  -1.286496 -18.121584 -57.228591  -1.320493 -18.200552 -56.391671  -1.295409 -19.653181 -55.114261  -1.264276 -19.386312 -55.409781  -1.278752 -18.095241 -51.740851  -1.166381 -26.917477 -52.980099  -1.202132 -25.691800 -52.036269  -1.181083 -25.402600 -51.326189  -1.162430 -25.206059 -50.199145  -1.130060 -26.526807 -49.264158  -1.103487 -27.212836 -52.615609  -1.200372 -23.713560 -54.165937  -1.240618 -19.859264 -54.279216  -1.229391 -23.750115 -53.893124  -1.230542 -20.958238 -54.896734  -1.250885 -22.707070 -54.242221  -1.238666 -22.919496 -55.864742  -1.279327 -21.612490 -54.848391  -1.258432 -21.018058 -53.460232  -1.210149 -22.027704 -53.198680  -1.203313 -21.843717 -54.146242  -1.236899 -19.823811 -53.103050  -1.199915 -22.983964 -51.809063  -1.157747 -25.504179 -52.443675  -1.178149 -24.983290 -52.231766  -1.180982 -23.319629 -52.858962  -1.190233 -25.752557 -52.303566  -1.169190 -27.659177 -49.963690  -1.118297 -27.556763 -52.584504  -1.193203 -23.555263 -52.538463  -1.192076 -24.602544 -51.321033  -1.156200 -25.778754 -50.161787  -1.114979 -26.720892 -49.242601  -1.093689 -27.016864 -50.625288  -1.129124 -27.039632 -50.698070  -1.132459 -27.962607 -48.259700  -1.069081 -28.441831 -48.508819  -1.075141 -27.883960 -48.495939  -1.078879 -27.969256 -56.628169  -1.305296 -18.589071 -56.147136  -1.290158 -20.116723 -54.289089  -1.244235 -20.244686 -54.873239  -1.261732 -18.767811 -55.672325  -1.285460 -17.243799 -56.821826  -1.314247 -16.996897 -55.006583  -1.264359 -19.469629 -55.892177  -1.290438 -18.309996 -54.367044  -1.251149 -19.894998 -53.466763  -1.226768 -21.964787 -52.632740  -1.205694 -21.408898 -51.500973  -1.176860 -23.023477 -50.328522  -1.126561 -24.499585 -49.793585  -1.110013 -24.576122 -51.154813  -1.148917 -23.266925 -51.237189  -1.150323 -22.908192 -54.573116  -1.271067 -16.500472 -55.315085  -1.285833 -15.723029 -55.355488  -1.277905 -15.819478 -53.726300  -1.222385 -21.177820 -52.692916  -1.197502 -21.396513 -53.299517  -1.229677 -18.125117 -53.427654  -1.225305 -19.949826 -54.386930  -1.253767 -17.978565 -52.405148  -1.200755 -19.411027 -54.109321  -1.251271 -16.194348 -53.226479  -1.225911 -18.258055 -53.358855  -1.234833 -16.977943 -50.894916  -1.152524 -25.332177 -49.889768  -1.132613 -24.827624 -51.607234  -1.175326 -23.176748 -48.631560  -1.096690 -25.879883 -51.135002  -1.169299 -22.418880 -52.590182  -1.205391 -19.200815 -52.523161  -1.196796 -21.392633 -52.878749  -1.207075 -21.745656 -50.961773  -1.151647 -21.443876 -51.503953  -1.169290 -20.050846 -50.916401  -1.158999 -20.564052 -50.722501  -1.150820 -22.585416 -51.270424  -1.155700 -22.973889