<?xml version="1.0"?>
<VTKFile type="UnstructuredGrid" version="0.1" byte_order="LittleEndian">
    <UnstructuredGrid>
        <Piece NumberOfPoints="3192" NumberOfCells="14977">
            <Points>
                <DataArray type="Float32" NumberOfComponents="3" format="ascii">
                    -30.410343 -14.586613 101.278355 -33.383723 -14.128708  99.346357 -31.252817 -12.273085 100.931091 -27.669498  -9.023398 101.450523 -34.694896 -15.969320  97.268627 -33.296037 -13.254591  97.037307 -34.643788 -11.037058  97.681992 -32.816539 -10.702019  99.561710 -30.234404  -9.574529 100.844204 -31.762632  -7.980992  99.140986 -34.782516  -8.558981  95.977528 -33.567137  -8.822689  97.978407 -28.128326 -12.097707 102.098561 -26.091619 -17.751431 101.347681 -26.916834 -15.166362 102.131770 -33.151224 -17.526861  98.316391 -28.286972 -17.441421 101.184962 -31.219886 -17.109181 100.099728 -31.633898 -14.751326  98.486949 -28.218455 -13.575894 100.224813 -29.450074 -13.930084  99.033034 -28.148423 -15.930451  99.767124 -24.266042 -16.453037 101.747056 -26.968072 -19.444047 100.298442 -29.221238 -19.398244  99.741021 -31.375740 -19.116877  98.742742 -32.467013 -19.902517  96.946007 -31.459727 -18.446662  96.845448 -27.393095 -17.777415  98.942160 -30.236864 -20.905397  97.773106 -26.597425 -11.398454 100.052337 -25.327099 -10.161651 101.987090 -23.590084  -8.748273 101.266889 -32.929937  -6.770871  96.988594 -29.109375  -7.139467 100.061072 -30.744652  -5.670597  97.906882 -24.622684 -13.307762 102.321670 -22.639390 -11.614274 101.826779 -33.227829 -10.149186  96.342886 -32.389349 -11.681071  96.705830 -34.397551 -18.262342  96.006764 -31.859483 -16.254192  96.996175 -35.161255 -18.698319  93.205750 -35.588598 -13.252442  96.519105 -31.864995 -14.385420  96.235605 -27.866299  -5.329855  98.959873 -26.206375  -8.934478  99.807289 -26.051451  -7.245062 100.727527 -29.337308 -11.326090  99.018241 -30.940293 -12.646924  98.286820 -30.457863  -7.860595  97.710013 -28.225091  -9.260457  98.370335 -31.672069  -4.666351  95.511038 -33.872753  -6.337242  94.813568 -35.437596  -8.097621  93.591128 -35.950797 -10.395341  94.869395 -36.353652  -9.979996  92.693638 -36.708045 -12.609051  93.228785 -36.184853 -15.920060  93.946074 -33.488022 -15.706586  94.885914 -33.913961 -17.233523  93.153314 -35.041048 -14.742702  93.034729 -33.000442  -8.182328  94.268447 -33.694965 -12.326200  95.033182 -33.792434 -10.241947  94.131823 -31.123167 -10.196100  97.558197 -31.599139  -8.744101  96.222473 -21.912088 -14.823672 101.535295 -27.609820 -12.151195  98.454676 -25.191967 -13.878834 100.309975 -25.897716 -11.231369  98.305356 -25.226349 -18.728348  98.751066 -24.348159 -19.007773 100.551498 -22.541773 -17.772208 100.799450 -24.044328 -15.868985  99.334332 -26.164829 -15.652783  99.693471 -29.716473 -17.393935  98.114582 -29.607033 -15.640155  97.758303 -29.948876 -14.158535  96.662367 -28.402007 -13.235190  96.979276 -26.397542 -13.772297  98.190779 -27.304763 -15.885181  97.670167 -31.652049 -18.473121  94.944890 -33.475981 -20.526874  94.202963 -27.863730 -21.229224  98.520216 -24.845335 -21.144963  98.840349 -22.090781 -16.034589  99.675853 -20.385578 -17.245554 100.033759 -32.217395 -22.009182  92.662325 -31.040128 -21.893548  95.500418 -28.548593 -22.642608  96.175943 -26.836220 -19.387571  98.029024 -28.729751 -18.615088  97.138513 -29.825975 -19.799623  95.662383 -30.056448 -17.231563  95.744935 -25.659713 -17.547205  97.201474 -27.561918 -20.628541  96.068290 -25.903780 -20.281279  96.581571 -21.827926 -19.891103  99.092144 -24.077346 -19.924680  97.246767 -21.191587  -8.953500 100.507894 -23.926535 -11.181426  99.602088 -22.085551 -10.379957  99.810454 -24.746059  -9.978543  99.199083 -26.417548  -6.833000  98.577317 -25.426301  -5.141109  99.038005 -23.017904  -6.312644  99.638441 -23.360364  -8.721689  99.366001 -30.773688  -6.672517  96.118681 -28.607649  -6.865199  97.369562 -28.982551  -3.717086  96.324857 -26.209707  -3.672246  97.166241 -24.007346  -4.392388  97.965409 -19.555073 -14.653792 100.329539 -20.276505 -12.138439 100.871725 -22.959605 -13.373739  99.305143 -20.481419 -12.858710  98.830831 -18.044228 -15.807943  98.750608 -36.032690 -17.327732  91.034680 -34.361047 -20.114793  91.218417 -32.470387 -21.863246  90.225881 -35.219774 -18.409115  88.915403 -31.958259 -10.817070  94.873605 -30.922698 -12.450963  95.917421 -32.201417 -17.693474  93.333113 -31.411991 -15.914967  94.282469 -30.386382 -15.075987  95.218612 -32.571494 -18.916449  91.516409 -34.162934 -13.561672  93.243753 -32.429919 -13.323384  93.438805 -26.052767  -6.029624  96.465580 -25.275323  -8.344859  98.176386 -29.783373  -2.980080  93.583674 -24.443717  -9.991682  97.218893 -27.635694 -10.555348  96.625594 -29.324979 -11.016641  96.236792 -29.091756  -8.311358  96.548099 -27.262745  -8.039499  96.666788 -30.506181  -8.156301  94.498432 -30.632082  -5.930047  94.133119 -31.970657  -7.115611  92.684932 -32.441697  -4.316782  92.755764 -33.186262  -8.324724  91.456794 -35.853520  -8.414166  90.990615 -34.343349  -6.022364  91.729011 -34.266561  -9.826075  91.616112 -34.286243 -11.828234  92.651617 -36.693119 -11.083938  90.793891 -35.156415 -12.994816  92.016266 -36.808163 -14.234874  90.710946 -36.389510 -12.279149  88.118210 -32.503328 -15.401584  92.572005 -32.631518 -16.516794  91.405497 -34.138168 -15.264255  91.550107 -31.495296  -9.456555  93.180469 -32.429908 -11.175873  92.505801 -29.900800 -10.025443  94.646264 -21.566794 -14.710790  98.516492 -26.076591 -12.175680  96.564062 -24.431013 -13.121883  97.554433 -22.727825 -17.143097  98.186758 -23.538523 -15.212342  96.918774 -24.138351 -17.555632  95.970810 -27.824489 -12.132582  94.567126 -25.548798 -15.006309  96.429544 -28.133552 -16.272202  96.064325 -25.855271 -17.278743  95.501300 -30.717362 -18.847044  91.756138 -30.189911 -17.684905  93.929336 -29.364375 -13.753917  94.794205 -28.879257 -16.370264  93.906136 -27.330985 -14.287392  95.375974 -30.780518 -20.206497  93.354574 -25.684014 -22.751463  96.708412 -22.897111 -22.189229  96.909771 -29.340415 -23.365394  93.410286 -30.330259 -23.176282  90.706039 -26.458457 -23.807870  94.002184 -20.507904 -16.484273  97.818824 -19.026513 -18.763071  97.997840 -20.172126 -21.127496  96.454993 -31.366101 -22.287895  88.638288 -30.716409 -20.783367  90.937747 -28.222816 -20.793922  93.743829 -27.209598 -18.621934  95.548412 -28.696622 -18.218558  94.404636 -25.595887 -19.411070  95.162449 -23.741168 -21.210956  95.061410 -25.759926 -21.120183  94.194420 -25.365573 -18.208802  94.287393 -21.960739 -19.030764  96.109929 -23.737581 -18.658236  94.567939 -36.245416 -15.533075  88.520364 -18.777482  -9.966168  99.309296 -21.206204  -8.448526  98.196474 -20.005010  -7.087504  98.627954 -30.446662  -3.014375  90.805544 -22.077135 -10.349788  98.057653 -23.276458 -11.609868  96.123007 -23.136553  -6.901478  97.464692 -21.424129  -4.743653  97.181483 -24.073337  -6.617705  95.597176 -22.496732  -8.947481  95.925258 -27.740105  -7.034339  94.795524 -25.451071  -6.791937  94.249812 -27.841606  -5.073726  93.886862 -26.977066  -2.477098  94.359037 -27.746859  -2.155077  91.617641 -23.768999  -2.932924  95.319709 -25.922001  -4.627987  93.221192 -24.024312  -4.355960  94.389491 -20.572679  -6.993962  95.857180 -19.223722  -5.516038  96.087631 -20.924613  -3.646972  94.564855 -19.856232 -14.112585  97.922396 -18.079592 -13.008711  99.270250 -16.799904 -11.262939  97.546143 -21.945848 -13.364934  97.002312 -19.928054 -11.726324  97.131378 -19.063007 -16.999626  96.445710 -18.254531 -15.294744  96.705809 -16.542134 -14.262107  97.314769 -18.008854 -19.774217  95.503933 -16.900415 -17.086173  96.590806 -33.793682 -15.518456  89.240623 -30.243308 -17.965274  90.082079 -33.019891 -17.431887  89.037767 -31.814148 -19.537435  89.376666 -33.383210 -20.439191  87.956359 -34.669175 -17.724061  86.539768 -30.822535 -21.511384  86.136427 -30.329799 -12.051220  93.529630 -30.526698 -16.164076  91.986317 -30.285566 -14.374323  92.333346 -31.573826 -16.641890  89.294794 -33.419637 -13.827714  90.573330 -31.861082 -12.900290  91.423708 -24.247834  -9.422336  94.528091 -25.926470  -8.941106  95.339996 -28.970574  -4.899131  92.079477 -25.904640 -12.958305  93.736704 -25.775143 -10.828159  94.682395 -36.061281  -9.502815  89.098463 -33.699505  -9.293543  89.791131 -27.956610  -9.077705  94.047682 -29.546066  -7.793581  92.439758 -31.277152  -6.339621  91.480656 -31.242741  -8.275104  91.688534 -31.685765 -10.124347  90.663751 -32.723594  -4.513797  89.972941 -31.989261  -7.816816  89.800070 -34.654080  -6.974165  88.590515 -31.810280  -6.384304  89.114210 -30.104968  -6.060983  90.302483 -34.200068 -11.561338  89.893917 -35.348011  -9.553087  86.896014 -34.573381 -13.571765  88.349661 -34.105208 -11.693972  87.217360 -35.520024 -14.546925  86.171860 -35.369367 -11.981490  85.803737 -34.066062 -10.452388  84.379887 -32.059387 -14.795336  90.073603 -30.115091 -10.945756  92.289120 -27.868178 -11.083122  93.071561 -19.893730 -14.663297  96.183659 -20.819511 -16.417310  95.529060 -21.699727 -15.062844  96.561800 -24.584593 -15.852202  94.354874 -24.103048 -12.325563  94.607256 -23.498907 -14.426144  95.004828 -22.675761 -16.042189  95.141524 -21.528873 -13.363447  94.534462 -28.280203 -13.142255  92.694084 -26.739963 -16.774390  94.219928 -28.877679 -19.004822  91.548789 -28.291210 -17.257007  92.427339 -28.062813 -15.294259  92.064265 -25.778188 -14.738071  92.515365 -28.365845 -21.249138  91.633600 -29.416621 -21.605367  89.936195 -26.163750 -21.907855  92.435316 -21.437553 -22.625762  94.883264 -23.770496 -23.525104  94.411536 -28.595483 -23.311541  88.066085 -27.370023 -24.052192  91.158652 -24.566051 -24.091678  91.727410 -20.037639 -18.366909  95.617262 -23.036423 -21.814628  93.075236 -21.954404 -19.801794  93.746758 -19.969373 -19.893305  94.417836 -19.388225 -21.820534  93.679422 -30.274562 -20.477661  88.416270 -28.623949 -19.945153  89.959330 -26.722565 -18.995752  92.9436
[...]
            <PointData>
                <DataArray type="Float32" Name="U0" NumberOfComponents="3" format="ascii">
                    -266.230774 -172.446436 -141.840764 -259.388990 -169.191165 -151.593479 -265.644055 -171.949763 -139.961730 -268.447265 -172.025905 -120.116538 -251.355754 -165.147401 -160.241495 -251.300117 -164.251271 -149.415070 -254.264019 -166.007927 -149.562060 -261.149567 -169.483984 -142.252425 -266.103927 -171.472626 -130.533945 -260.409141 -168.284210 -132.651207 -248.816822 -162.417845 -144.786620 -255.969470 -166.327662 -140.959421 -269.906732 -173.537236 -128.377313 -265.575893 -171.355068 -132.972938 -269.150023 -173.252866 -130.534573 -254.692171 -166.933408 -157.978577 -265.078593 -171.639116 -140.240670 -261.252862 -170.172263 -150.117437 -256.108132 -166.861649 -146.601965 -262.721777 -169.578091 -131.816164 -258.318276 -167.397778 -136.987715 -260.393565 -168.591619 -136.545044 -267.393148 -171.677035 -123.615927 -261.300125 -169.376996 -139.722257 -259.301152 -168.838626 -147.764393 -255.776436 -167.333411 -154.947423 -249.059776 -163.825314 -160.559454 -249.114555 -163.322704 -153.825026 -256.878660 -166.619406 -137.722541 -251.758792 -164.945869 -154.634489 -262.719567 -168.741760 -121.333766 -270.060944 -172.498828 -114.142805 -267.860288 -170.463588 -104.788607 -252.981384 -164.035711 -134.287860 -263.972240 -169.480928 -121.277852 -256.612451 -165.362662 -124.050303 -270.372497 -172.999826 -118.301163 -269.067900 -171.382794 -107.519163 -249.681662 -162.749834 -142.557359 -250.554029 -163.283147 -142.792556 -246.138028 -162.379109 -164.044177 -250.289745 -163.756478 -150.608102 -235.891181 -156.638078 -167.730299 -249.428264 -163.806183 -157.689291 -248.078606 -162.137072 -146.653014 -260.511718 -166.776937 -112.927879 -262.538943 -168.101716 -114.643582 -266.349036 -170.022035 -110.461161 -259.011343 -167.324709 -131.039971 -255.989768 -166.233850 -139.625007 -255.274702 -164.860806 -127.681847 -257.259323 -165.623494 -122.613503 -248.244202 -160.528176 -125.260061 -245.247114 -159.677415 -136.768985 -240.325961 -157.526766 -146.169872 -244.286528 -160.396723 -152.915668 -236.543367 -155.881975 -153.485581 -237.723112 -157.125116 -160.362005 -239.364781 -158.504583 -165.517982 -242.822469 -159.731589 -155.321654 -236.122505 -156.168264 -160.106399 -236.409650 -156.236072 -158.879017 -242.748582 -158.267388 -137.544915 -244.325266 -160.099578 -148.876359 -241.665318 -158.206554 -144.790896 -254.059523 -164.730251 -135.062645 -249.648142 -162.023171 -133.683334 -267.094000 -170.553697 -111.638407 -256.733524 -165.634284 -126.566281 -262.932742 -168.892324 -121.538951 -256.451430 -164.821728 -118.423622 -255.910510 -165.591057 -131.905888 -262.338213 -169.163077 -129.325025 -263.588620 -169.170080 -120.168706 -258.833192 -166.493351 -121.575342 -260.197761 -167.867188 -128.797138 -254.002155 -165.524210 -145.295716 -253.219607 -164.733416 -141.177464 -249.685212 -162.496022 -139.256708 -251.092938 -162.725242 -131.713494 -255.309976 -164.731932 -125.635281 -252.825409 -163.887897 -133.386995 -242.239187 -159.334192 -154.573295 -238.969018 -158.278405 -165.531112 -254.363177 -165.854610 -146.747932 -255.541307 -165.670325 -135.659586 -260.021274 -166.655677 -114.850674 -260.969494 -166.926352 -111.248885 -232.974725 -154.640098 -164.135357 -243.263195 -160.342001 -159.636909 -245.486946 -161.065171 -152.225955 -253.114935 -164.517166 -139.123454 -250.122214 -163.165658 -144.322501 -244.448933 -160.338806 -150.797307 -245.485873 -160.579411 -146.171777 -250.649104 -162.421145 -130.964557 -245.674570 -160.554092 -144.378339 -247.626429 -161.171215 -137.648261 -256.808218 -165.339269 -122.085942 -250.129886 -162.062121 -130.289308 -265.057286 -168.163045  -96.535089 -261.145691 -167.015320 -111.211098 -262.123887 -166.928873 -102.830360 -260.035679 -166.388526 -111.596600 -258.696026 -165.544418 -110.901747 -260.844747 -166.242973 -103.708297 -262.675474 -166.832385  -97.502760 -260.997125 -166.347183 -103.892204 -249.864918 -161.563646 -126.288093 -254.326856 -163.603090 -118.876792 -251.453897 -161.487311 -113.520378 -254.503094 -162.481283 -103.406529 -257.181389 -163.551886  -96.981459 -262.780296 -167.315728 -102.739460 -265.457435 -168.673701 -100.015293 -259.438010 -166.117972 -112.362268 -257.869772 -164.394871 -102.280073 -256.738869 -163.527035  -99.722316 -228.439273 -152.266556 -167.961622 -228.301852 -152.180658 -167.851447 -224.211184 -149.527508 -164.737525 -220.468736 -147.523919 -167.323489 -244.180480 -159.258766 -139.391272 -247.483673 -161.185701 -139.134028 -236.639465 -156.061012 -154.897292 -240.580824 -157.853488 -148.264684 -244.204199 -159.550317 -142.780052 -229.722540 -152.301690 -158.833763 -237.504042 -156.427635 -153.193345 -238.277035 -156.345235 -146.425222 -251.294596 -160.944002 -107.862386 -256.810520 -164.361647 -110.004428 -241.759987 -155.882642 -114.841702 -252.874041 -162.088056 -110.509094 -250.580591 -161.743763 -123.237360 -249.047262 -161.403594 -130.315852 -250.946041 -161.994345 -123.708148 -251.448393 -161.720854 -116.522634 -243.585012 -158.039510 -128.479341 -242.901962 -157.296602 -124.191258 -237.330841 -154.600397 -131.549845 -238.388205 -154.885002 -127.294267 -232.547187 -152.337606 -138.514801 -230.837253 -152.112372 -148.344547 -234.190590 -153.247497 -137.796655 -232.693258 -152.988851 -145.614862 -235.861464 -155.200434 -149.949079 -229.361322 -151.937233 -157.060605 -233.230871 -154.099751 -155.575117 -228.157514 -151.796920 -164.182577 -219.347963 -146.157280 -158.505106 -234.547516 -154.524729 -151.110671 -230.011615 -152.080476 -153.944219 -230.894550 -152.818546 -156.724194 -238.451290 -155.521030 -134.817414 -235.521051 -154.356507 -141.852392 -243.583329 -158.182255 -130.274845 -256.204059 -164.040769 -110.142921 -249.886868 -161.171290 -121.058648 -253.187407 -162.811704 -117.134978 -254.319561 -163.674782 -119.506306 -250.289975 -161.207790 -118.336363 -246.195049 -159.364785 -125.475341 -242.688727 -157.423142 -127.261125 -248.586734 -160.742956 -125.166110 -246.912594 -160.707859 -137.191241 -244.582369 -158.857961 -131.092324 -230.607437 -152.281076 -151.984954 -238.794284 -156.754258 -147.612493 -243.048475 -158.351938 -136.275231 -239.086490 -156.327981 -140.081550 -244.992505 -159.009059 -130.068962 -235.993334 -155.701499 -155.108010 -247.377230 -161.376847 -142.104656 -248.262864 -161.005652 -130.835530 -235.285598 -155.408174 -156.623321 -225.568029 -149.936557 -159.796419 -237.294672 -155.841660 -147.147997 -253.175451 -162.253355 -110.073048 -253.172222 -162.209348 -109.557810 -246.920390 -159.257007 -118.726219 -218.350884 -145.832274 -161.648736 -227.093239 -150.539942 -156.100588 -237.227952 -155.797854 -147.114653 -244.371159 -159.347396 -138.840160 -240.356380 -157.338830 -143.352464 -242.746302 -158.063617 -134.683373 -241.863011 -157.316210 -131.804846 -238.758751 -156.050809 -138.907691 -239.928016 -156.134776 -131.292745 -246.272787 -159.036295 -120.735303 -240.809083 -156.264969 -126.363869 -219.867456 -146.974795 -164.909847 -260.430509 -164.918830  -89.949331 -256.843657 -163.241208  -95.504745 -258.795493 -163.816623  -88.256283 -231.711211 -150.160805 -117.309084 -255.794834 -163.198475 -102.719022 -248.444261 -159.428724 -109.723731 -254.648172 -162.235373  -99.184466 -254.242335 -161.142523  -88.390834 -247.981813 -158.527982 -101.958929 -248.492305 -158.777591 -101.228497 -244.974855 -157.875194 -116.096100 -243.066146 -156.056675 -107.304048 -242.252987 -155.969637 -112.283224 -244.702206 -156.726781 -103.630148 -234.888559 -151.112965 -105.722734 -248.038027 -157.850873  -93.006441 -239.971163 -154.001763 -104.394023 -244.267308 -155.943770  -96.958554 -248.805544 -158.080789  -90.104168 -250.062980 -158.184543  -82.078093 -245.099947 -155.429207  -84.243646 -254.226169 -162.284123 -102.676717 -259.416727 -164.640796  -93.899955 -253.682309 -160.603100  -85.550829 -251.115061 -160.923924 -108.649477 -252.048485 -160.616239  -97.858342 -248.063170 -158.917557 -105.939435 -249.489530 -159.237282  -99.390357 -251.986841 -160.041193  -91.000940 -243.867093 -156.613363 -108.026429 -248.562762 -158.606069  -98.302006 -222.475029 -147.805131 -156.016923 -224.810809 -148.581811 -148.391694 -221.191779 -147.153539 -157.292045 -221.810722 -147.531057 -157.415133 -216.418599 -144.957875 -165.005250 -212.079245 -142.309591 -163.873922 -209.531069 -140.350342 -158.029472 -238.968045 -155.933842 -136.131860 -232.210343 -152.713530 -145.588370 -233.978124 -153.380066 -140.910728 -222.347309 -147.285561 -150.383212 -227.776973 -150.532055 -151.068656 -231.115625 -151.893294 -143.463771 -243.312147 -156.307668 -108.563543 -246.391044 -158.515169 -113.610394 -235.773518 -152.448052 -115.987437 -239.443948 -155.107855 -122.074402 -243.472106 -157.076958 -117.079866 -223.686993 -148.146322 -151.410978 -226.250055 -148.941629 -142.429222 -241.687309 -156.348546 -121.228970 -236.247622 -153.381986 -124.230837 -233.200150 -151.837554 -127.389215 -233.397471 -152.272087 -131.385282 -229.164825 -150.221192 -136.920161 -228.274759 -149.044106 -128.729789 -226.704494 -148.467482 -133.104031 -222.575069 -146.658822 -140.942531 -224.635503 -146.955361 -129.407561 -229.020771 -148.993352 -122.556641 -225.971821 -149.307009 -149.065115 -215.711876 -143.254744 -148.938020 -219.813819 -146.130142 -154.691266 -216.260080 -143.583807 -149.001135 -211.662003 -141.767745 -160.187302 -211.067323 -140.938582 -154.182805 -206.358746 -137.532757 -146.215171 -225.692745 -149.079910 -148.210195 -234.801586 -153.230295 -132.997284 -237.584717 -154.250236 -125.174105 -247.782680 -158.595756 -103.977127 -244.916796 -157.470347 -111.051949 -249.038215 -159.919426 -111.363169 -240.843407 -156.051666 -123.461760 -242.764437 -156.441995 -114.223071 -243.596274 -157.120824 -116.509278 -243.626605 -157.178560 -116.967619 -242.194907 -155.552132 -107.121287 -235.631315 -153.570116 -131.043542 -240.098843 -156.383902 -133.211237 -229.810515 -151.313232 -145.671036 -233.486261 -153.013415 -139.835689 -232.736895 -152.172083 -134.833019 -234.519240 -152.476419 -125.394363 -229.471691 -151.347914 -148.596042 -223.236304 -148.036317 -153.150245 -232.176528 -152.423347 -142.039516 -240.811974 -156.276763 -126.486111 -238.851982 -155.941869 -136.831764 -215.986584 -143.820655 -153.811950 -226.949367 -150.051913 -150.961139 -228.990393 -150.458511 -140.910273 -244.679254 -157.435643 -112.369480 -234.511091 -152.887929 -130.538040 -237.511066 -154.005852 -122.346560 -239.907943 -154.864688 -115.366722 -236.688621 -153.127904 -117.364727 -218.068285 -145.046507 -153.849472 -223.796098 -147.858075 -146.751083 -234.849562 -153.664566 -137.866109 -235.574602 -153.662015 -132.412966 -234.851427 -152.819097 -127.169840 -237.328529 -153.476443 -117.020500 -232.426153 -151.296028 -125.938711 -226.657193 -148.979364 -139.610311 -219.139580 -145.170863 -147.601037 -213.750545 -142.515103 -154.088981 -204.401505 -137.295435 -157.671918 -250.644339 -159.530450  -94.652127 -253.462698 -160.233800  -82.598463 -244.558662 -154.601055  -77.708610 -227.028940 -147.126477 -113.806312 -223.001048 -145.280161 -120.427159 -224.259147 -145.053165 -108.222816 -244.911286 -156.822360 -103.048990 -244.601647 -156.046696  -95.704744 -240.275333 -154.039389 -102.561237 -243.500170 -154.560552  -85.042290 -241.677190 -154.256370  -94.754677 -241.661361 -154.853307 -102.484243 -238.595656 -153.238310 -104.802647 -236.771376 -152.700877 -111.741944 -238.543084 -153.645113 -110.455781 -230.870078 -148.869560 -107.255766 -237.710000 -151.944527  -95.237947 -229.323186 -147.259593  -98.439666 -238.613552 -151.885088  -87.749807 -233.032644 -149.676778 -101.325494 -234.994301 -150.313826  -94.811367 -238.603047 -152.112659  -90.649191 -240.870605 -153.212503  -87.617718 -240.967747 -152.555789  -78.654122 -235.213921 -149.474812  -82.580543 -247.874422 -157.818261  -93.505742 -246.234304 -155.716018  -79.237075 -245.903612 -155.859744  -83.432748 -244.611982 -155.610007  -89.909224 -243.839499 -155.884181  -99.095427 -242.843150 -155.130256  -97.032797 -233.147462 -150.272878 -107.634333 -241.138924 -154.652197 -103.533979 -242.283652 -155.200939 -101.977360 -237.457134 -152.780614 -107.274878 -243.598034 -154.994599  -89.595302 -239.023475 -152.988536  -98.235139 -206.476946 -137.888634 -149.651919 -213.980122 -142.170566 -147.923936 -226.968390 -149.191883 -140.070008 -221.697532 -146.408793 -144.087535 -220.113551 -145.114289 -139.574499 -217.699160 -144.346371 -147.853103 -216.428176 -143.493115 -146.481008 -215.092846 -143.340175 -154.475255 -208.445796 -139.123535 -150.691935 -212.196277 -141.582405 -153.792716 -206.668298 -138.815992 -159.977559 -202.174208 -135.578815 -152.513194 -235.652986 -152.478594 -116.996479 -228.065704 -149.561642 -136.697860 -226.766133 -148.970595 -138.837527 -222.945959 -146.827382 -140.254363 -235.507736 -152.033321 -112.547018 -234.929403 -151.346766 -108.248940 -236.802384 -153.104134 -116.518605 -232.630992 -150.786375 -118.312327 -229.236849 -148.607190 -116.068255 -233.294458 -151.365086 -120.580293 -228.476303 -148.899065 -125.314814 -219.305212 -144.798096 -141.739417 -222.196253 -146.148817 -137.307572 -229.360331 -149.617733 -127.863705 -223.250267 -146.381267 -132.398028 -226.845580 -147.855118 -124.339816 -221.957945 -145.401736 -129.680548 -217.658264 -142.810113 -128.932793 -219.442433 -144.217946 -133.432229 -211.737251 -140.067913 -138.286030 -221.239294 -144.612911 -125.084929 -223.151449 -145.192817 -118.205990 -215.804816 -141.061975 -120.652558 -215.176679 -140.404623 -117.015800 -216.489554 -143.137285 -141.678937 -210.087826 -139.198085 -139.551684 -209.684415 -139.707110 -148.910501 -209.074101 -138.953279 -143.964116 -204.425832 -136.908531 -152.657184 -199.217595 -133.827924 -152.422459 -198.433014 -133.093023 -149.014589 -199.757618 -133.386132 -142.917135 -203.042452 -134.706400 -135.208860 -208.742381 -137.410104 -127.010790 -218.914003 -144.369899 -139.161480 -229.008061 -149.560314 -129.654598 -223.146563 -146.465970 -134.121414 -239.559575 -153.985129 -106.878246 -235.522274 -151.683416 -107.915367 -233.421477 -151.178861 -117.101111 -236.826035 -152.750867 -111.641367 -236.700115 -151.923134 -102.143292 -227.811923 -148.449905 -124.477339 -229.003889 -149.483337 -128.567641 -224.883859 -147.791337 -137.835355 -222.434597 -145.811191 -131.103587 -229.738404 -148.974363 -116.692496 -218.866207 -144.791861 -144.661627 -226.226467 -148.444431 -136.033814 -230.096909 -150.162395 -128.943264 -211.045208 -140.145984 -144.169809 -218.997902 -144.812128 -143.927033 -221.849792 -145.777075 -134.900823 -233.335857 -150.756328 -112.345074 -230.396922 -148.675777 -107.937338 -227.642020 -147.562259 -114.379506 -220.511120 -144.370824 -127.103894 -228.471585 -148.834814 -124.256076 -229.825830 -148.926737 -115.339586 -225.957406 -146.801190 -117.273968 -217.752301 -143.921783 -142.008412 -214.019857 -141.576556 -140.120922 -219.973430 -144.984478 -138.873944 -227.271829 -148.078356 -123.670751 -227.093649 -148.443832 -129.593456 -220.885424 -145.089652 -133.429963 -225.600434 -146.810230 -120.056616 -222.602187 -145.854421 -130.282841 -213.298285 -140.957854 -137.868214 -202.088923 -135.054666 -146.609944 -210.113171 -139.747062 -146.212948 -240.881553 -153.343903  -89.063162 -238.342497 -151.296603  -82.095468 -237.599013 -150.804910  -81.508584 -222.360853 -143.123342  -97.955377 -222.323295 -143.632138 -104.659252 -220.974241 -143.280200 -110.238554 -219.191599 -142.352957 -111.784317 -214.290995 -138.931816 -104.988963 -235.710405 -151.225157 -100.756184 -235.800916 -150.815360  -95.052727 -236.752391 -150.953203  -89.622230 -231.592269 -148.864341 -101.636446 -232.419174 -149.737841 -106.481583 -229.187387 -147.695181 -104.615327 -226.602626 -146.419041 -107.974520 -226.372662 -145.502310  -98.138317 -227.979219 -145.741577  -89.243293 -228.363509 -146.523692  -96.107274 -229.301739 -146.319621  -86.633840 -233.464908 -148.524617  -83.485406 -237.496834 -152.027668  -97.500546 -239.000802 -152.231964  -88.889296 -238.906751 -151.853406  -84.852578 -231.123891 -147.915220  -92.980759 -234.504662 -150.055971  -94.876264 -226.755224 -146.691995 -109.945196 -232.016814 -148.962736  -99.507358 -230.573514 -148.363525 -102.657068 -235.244614 -150.462151  -94.435226 -206.878556 -137.587528 -142.878944 -205.051453 -136.256243 -139.658657 -199.313321 -133.186929 -143.598169 -208.902293 -138.867434 -144.009308 -217.039927 -142.993097 -135.610990 -214.476271 -141.514931 -136.076275 -209.545973 -139.071689 -141.885607 -204.659698 -136.586082 -146.782439 -195.874738 -131.247708 -144.709831 -227.569802 -147.238787 -110.957326 -227.743934 -147.818553 -117.031593 -221.595026 -145.354103 -131.693852 -215.703549 -141.989427 -133.056689 -228.262332 -147.795999 -112.962394 -224.591107 -146.099480 -118.909184 -224.803516 -146.414314 -121.221911 -221.565772 -144.781559 -124.722611 -212.509972 -139.944532 -131.006676 -219.986369 -143.836981 -124.571966 -219.696466 -143.478849 -122.230818 -215.154281 -141.082845 -125.744138 -218.435619 -142.181783 -115.224391 -215.130172 -140.292367 -115.953362 -209.059642 -137.263448 -122.816615 -207.259449 -135.569871 -114.799456 -212.013993 -139.622743 -130.594478 -207.706423 -137.426305 -134.886659 -203.243435 -135.269178 -140.788762 -199.750503 -133.180832 -140.347135 -194.382095 -129.898288 -138.824430 -194.020271 -130.018785 -143.001880 -206.891401 -136.357193 -127.486341 -196.733803 -130.777670 -132.485017 -201.275864 -132.773877 -123.937348 -218.719555 -143.395508 -128.322498 -223.828815 -145.710512 -119.441530 -220.873969 -143.853571 -118.028588 -230.010139 -148.245901 -105.413785 -228.046483 -146.548579  -98.553728 -211.169572 -139.039690 -129.465954 -224.384454 -144.790134 -103.567651 -223.390823 -144.836130 -111.590408 -216.448670 -141.812257 -125.136630 -219.172053 -143.670459 -128.281314 -221.208237 -144.086494 -118.361915 -221.412196 -143.804253 -113.238145 -224.660413 -145.043913 -104.712575 -213.328563 -140.843817 -136.000710 -220.886858 -144.740444 -128.971944 -212.289474 -139.984779 -132.889827 -225.017606 -145.922706 -113.165450 -218.685388 -142.712042 -119.722860 -217.681983 -142.284515 -121.798806 -221.713119 -144.013388 -113.632110 -209.913895 -138.716364 -134.558984 -214.715856 -141.192672 -130.084618 -206.869076 -136.671341 -131.373831 -216.241197 -141.725706 -125.474271 -205.182397 -135.928406 -134.707701 -231.732068 -147.520682  -83.410820 -230.493102 -146.723091  -82.642780 -219.384922 -141.324969  -97.343044 -218.567794 -141.851841 -110.047218 -217.803987 -140.785364 -102.271788 -213.550500 -138.895955 -110.065157 -213.236778 -138.163616 -103.112934 -210.132749 -136.786232 -108.810875 -226.149142 -145.463012  -99.024427 -226.882588 -145.266958  -91.090340 -224.541536 -144.916118 -104.196734 -221.764606 -143.666556 -109.000633 -222.821499 -143.896603 -103.958194 -223.859849 -143.280051  -88.340890 -219.003778 -141.449517 -101.660366 -222.075676 -142.574326  -92.935442 -222.274162 -142.531967  -91.038385 -225.067757 -143.760783  -85.648218 -231.526453 -147.809381  -88.576760 -226.066202 -144.733641  -90.289098 -224.478372 -144.435727  -98.367006 -220.284471 -142.056298  -99.505908 -221.494150 -143.265538 -105.800373 -226.705752 -145.575640  -96.221956 -222.853827 -142.664574  -88.088148 -199.421962 -132.755965 -137.379312 -202.790544 -134.523234 -134.612657 -221.399855 -142.492649  -96.725489 -217.311151 -140.201746  -98.206658 -207.654248 -136.939624 -128.967970 -208.265845 -137.570173 -132.427407 -203.581289 -134.843585 -132.879101 -197.514239 -131.487966 -135.594386 -219.276431 -142.292428 -110.239189 -214.469246 -140.610607 -124.832202 -218.653588 -142.581702 -118.597089 -207.464534 -136.344831 -123.027657 -212.145874 -138.783557 -119.095075 -205.284466 -134.423101 -115.032771 -205.714400 -135.349363 -123.521354 -197.786230 -131.179775 -129.757396 -196.821855 -130.848345 -132.